Title = " tecplot file for 2D Cavity problem " 
variables = "x", "y", "z", "cellCentroidY" 
Zone T = "nmesh0" N = 21021 E = 20000 DATAPACKING = BLOCK, VARLOCATION = ([4]=CELLCENTERED), ZONETYPE=FEQUADRILATERAL
0.000399600014979    0.000400000004377    0.000400000002131    0.00039960001281    0.000399200027306    
0.000399200024691    0.000398800039972    0.000398800036532    0.000398400052597    0.000398400048235    
0.000398000065155    0.000398000059837    0.000397600077599    0.000397600071319    0.00039720008991    
0.00039720008267    0.000396800102074    0.000396800093885    0.000396400114087    0.000396400104958    
0.000396000125945    0.00039600011589    0.000395600137649    0.000395600126678    0.000395200149198    
0.000395200137324    0.000394800160593    0.000394800147829    0.000394400171834    0.000394400158192    
0.000394000182924    0.000394000168414    0.000393600193862    0.000393600178498    0.00039320020465    
0.000393200188442    0.000392800215289    0.000392800198249    0.000392400225778    0.00039240020792    
0.000392000236121    0.000392000217454    0.000391600246317    0.000391600226853    0.000391200256367    
0.000391200236117    0.000390800266272    0.000390800245248    0.000390400276033    0.000390400254247    
0.000390000285652    0.000390000263114    0.000389600295128    0.00038960027185    0.000389200304464    
0.000389200280456    0.000388800313659    0.000388800288933    0.000388400322715    0.000388400297281    
0.000388000331633    0.000388000305503    0.000387600340413    0.000387600313597    0.000387200349057    
0.000387200321566    0.000386800357566    0.00038680032941    0.00038640036594    0.00038640033713    
0.00038600037418    0.000386000344726    0.000385600382287    0.0003856003522    0.000385200390263    
0.000385200359553    0.000384800398108    0.000384800366785    0.000384400405822    0.000384400373897    
0.000384000413408    0.00038400038089    0.000383600420865    0.000383600387765    0.000383200428195    
0.000383200394523    0.000382800435399    0.000382800401164    0.000382400442477    0.00038240040769    
0.00038200044943    0.000382000414101    0.00038160045626    0.000381600420397    0.000381200462967    
0.000381200426581    0.000380800469552    0.000380800432652    0.000380400476016    0.000380400438612    
0.000380000482361    0.000380000444461    0.000379600488585    0.0003796004502    0.000379200494692    
0.00037920045583    0.000378800500681    0.000378800461352    0.000378400506554    0.000378400466766    
0.000378000512311    0.000378000472074    0.000377600517953    0.000377600477276    0.000377200523481    
0.000377200482374    0.000376800528897    0.000376800487367    0.0003764005342    0.000376400492256    
0.000376000539392    0.000376000497043    0.000375600544473    0.000375600501729    0.000375200549446    
0.000375200506313    0.000374800554309    0.000374800510798    0.000374400559065    0.000374400515183    
0.000374000563714    0.00037400051947    0.000373600568257    0.000373600523658    0.000373200572694    
0.00037320052775    0.000372800577028    0.000372800531746    0.000372400581258    0.000372400535647    
0.000372000585385    0.000372000539453    0.000371600589411    0.000371600543165    0.000371200593335    
0.000371200546784    0.00037080059716    0.000370800550311    0.000370400600886    0.000370400553747    
0.000370000604513    0.000370000557092    0.000369600608043    0.000369600560347    0.000369200611476    
0.000369200563513    0.000368800614813    0.000368800566591    0.000368400618056    0.000368400569581    
0.000368000621204    0.000368000572484    0.000367600624259    0.000367600575302    0.000367200627221    
0.000367200578034    0.000366800630092    0.000366800580682    0.000366400632872    0.000366400583246    
0.000366000635562    0.000366000585727    0.000365600638163    0.000365600588126    0.000365200640675    
0.000365200590443    0.0003648006431    0.00036480059268    0.000364400645438    0.000364400594837    
0.000364000647691    0.000364000596915    0.000363600649858    0.000363600598914    0.000363200651941    
0.000363200600835    0.00036280065394    0.00036280060268    0.000362400655857    0.000362400604448    
0.000362000657692    0.000362000606141    0.000361600659445    0.000361600607759    0.000361200661119    
0.000361200609303    0.000360800662712    0.000360800610774    0.000360400664228    0.000360400612172    
0.000360000665665    0.000360000613499    0.000359600667025    0.000359600614754    0.000359200668308    
0.000359200615938    0.000358800669516    0.000358800617054    0.000358400670649    0.0003584006181    
0.000358000671708    0.000358000619077    0.000357600672694    0.000357600619988    0.000357200673607    
0.000357200620831    0.000356800674449    0.000356800621608    0.000356400675219    0.00035640062232    
0.000356000675919    0.000356000622967    0.00035560067655    0.00035560062355    0.000355200677112    
0.00035520062407    0.000354800677606    0.000354800624526    0.000354400678032    0.000354400624921    
0.000354000678393    0.000354000625255    0.000353600678687    0.000353600625528    0.000353200678916    
0.000353200625741    0.000352800679081    0.000352800625894    0.000352400679183    0.00035240062599    
0.000352000679221    0.000352000626027    0.000351600679198    0.000351600626007    0.000351200679113    
0.00035120062593    0.000350800678967    0.000350800625797    0.000350400678762    0.000350400625609    
0.000350000678497    0.000350000625367    0.000349600678173    0.00034960062507    0.000349200677792    
0.00034920062472    0.000348800677354    0.000348800624318    0.000348400676859    0.000348400623863    
0.000348000676309    0.000348000623358    0.000347600675703    0.000347600622801    0.000347200675043    
0.000347200622194    0.00034680067433    0.000346800621538    0.000346400673563    0.000346400620833    
0.000346000672744    0.00034600062008    0.000345600671874    0.000345600619279    0.000345200670953    
0.000345200618431    0.000344800669981    0.000344800617537    0.00034440066896    0.000344400616597    
0.00034400066789    0.000344000615612    0.000343600666771    0.000343600614583    0.000343200665605    
0.00034320061351    0.000342800664392    0.000342800612393    0.000342400663133    0.000342400611234    
0.000342000661828    0.000342000610032    0.000341600660478    0.000341600608789    0.000341200659084    
0.000341200607506    0.000340800657646    0.000340800606182    0.000340400656165    0.000340400604818    
0.000340000654641    0.000340000603415    0.000339600653076    0.000339600601974    0.00033920065147    
0.000339200600494    0.000338800649823    0.000338800598977    0.000338400648136    0.000338400597424    
0.000338000646409    0.000338000595834    0.000337600644644    0.000337600594208    0.000337200642841    
0.000337200592547    0.000336800641    0.000336800590852    0.000336400639123    0.000336400589123    
0.000336000637209    0.00033600058736    0.00033560063526    0.000335600585564    0.000335200633275    
0.000335200583736    0.000334800631256    0.000334800581877    0.000334400629203    0.000334400579985    
0.000334000627117    0.000334000578064    0.000333600624998    0.000333600576112    0.000333200622846    
0.00033320057413    0.000332800620663    0.000332800572119    0.00033240061845    0.000332400570079    
0.000332000616205    0.000332000568012    0.000331600613931    0.000331600565917    0.000331200611627    
0.000331200563794    0.000330800609295    0.000330800561646    0.000330400606934    0.000330400559471    
0.000330000604546    0.000330000557271    0.00032960060213    0.000329600555045    0.000329200599688    
0.000329200552795    0.00032880059722    0.000328800550521    0.000328400594727    0.000328400548224    
0.000328000592208    0.000328000545903    0.000327600589665    0.00032760054356    0.000327200587098    
0.000327200541195    0.000326800584507    0.000326800538809    0.000326400581894    0.000326400536401    
0.000326000579258    0.000326000533972    0.000325600576601    0.000325600531524    0.000325200573922    
0.000325200529055    0.000324800571222    0.000324800526568    0.000324400568502    0.000324400524061    
0.000324000565762    0.000324000521537    0.000323600563002    0.000323600518994    0.000323200560224    
0.000323200516434    0.000322800557427    0.000322800513857    0.000322400554613    0.000322400511264    
0.000322000551781    0.000322000508655    0.000321600548932    0.00032160050603    0.000321200546067    
0.000321200503389    0.000320800543185    0.000320800500734    0.000320400540289    0.000320400498065    
0.000320000537377    0.000320000495382    0.00031960053445    0.000319600492685    0.000319200531509    
0.000319200489975    0.000318800528555    0.000318800487253    0.000318400525587    0.000318400484518    
0.000318000522607    0.000318000481771    0.000317600519614    0.000317600479014    0.000317200516609    
0.000317200476245    0.000316800513593    0.000316800473465    0.000316400510565    0.000316400470675    
0.000316000507527    0.000316000467876    0.000315600504479    0.000315600465067    0.000315200501421    
0.000315200462249    0.000314800498354    0.000314800459422    0.000314400495278    0.000314400456587    
0.000314000492193    0.000314000453745    0.0003136004891    0.000313600450894    0.000313200485999    
0.000313200448037    0.000312800482891    0.000312800445173    0.000312400479776    0.000312400442302    
0.000312000476654    0.000312000439425    0.000311600473527    0.000311600436543    0.000311200470393    
0.000311200433655    0.000310800467254    0.000310800430762    0.00031040046411    0.000310400427865    
0.000310000460962    0.000310000424964    0.000309600457809    0.000309600422058    0.000309200454653    
0.000309200419149    0.000308800451492    0.000308800416237    0.000308400448329    0.000308400413321    
0.000308000445163    0.000308000410403    0.000307600441994    0.000307600407483    0.000307200438824    
0.000307200404561    0.000306800435651    0.000306800401637    0.000306400432477    0.000306400398712    
0.000306000429302    0.000306000395786    0.000305600426127    0.00030560039286    0.000305200422951    
0.000305200389933    0.000304800419775    0.000304800387005    0.000304400416599    0.000304400384079    
0.000304000413424    0.000304000381152    0.000303600410249    0.000303600378227    0.000303200407076    
0.000303200375302    0.000302800403905    0.000302800372379    0.000302400400735    0.000302400369458    
0.000302000397568    0.000302000366539    0.000301600394403    0.000301600363622    0.00030120039124    
0.000301200360707    0.000300800388081    0.000300800357796    0.000300400384925    0.000300400354887    
0.000300000381773    0.000300000351982    0.000299600378625    0.00029960034908    0.000299200375481    
0.000299200346182    0.000298800372342    0.000298800343289    0.000298400369207    0.0002984003404    
0.000298000366077    0.000298000337515    0.000297600362953    0.000297600334636    0.000297200359834    
0.000297200331761    0.000296800356721    0.000296800328892    0.000296400353615    0.000296400326029    
0.000296000350514    0.000296000323171    0.00029560034742    0.00029560032032    0.000295200344334    
0.000295200317475    0.000294800341254    0.000294800314636    0.000294400338182    0.000294400311804    
0.000294000335117    0.00029400030898    0.00029360033206    0.000293600306162    0.000293200329011    
0.000293200303352    0.000292800325971    0.00029280030055    0.000292400322939    0.000292400297755    
0.000292000319916    0.000292000294969    0.000291600316902    0.000291600292191    0.000291200313897    
0.000291200289421    0.000290800310901    0.00029080028666    0.000290400307916    0.000290400283908    
0.00029000030494    0.000290000281165    0.000289600301974    0.000289600278431    0.000289200299018    
0.000289200275707    0.000288800296073    0.000288800272992    0.000288400293139    0.000288400270288    
0.000288000290215    0.000288000267593    0.000287600287302    0.000287600264908    0.000287200284401    
0.000287200262234    0.000286800281511    0.00028680025957    0.000286400278633    0.000286400256917    
0.000286000275767    0.000286000254275    0.000285600272912    0.000285600251644    0.00028520027007    
0.000285200249024    0.000284800267239    0.000284800246415    0.000284400264422    0.000284400243818    
0.000284000261617    0.000284000241232    0.000283600258825    0.000283600238659    0.000283200256045    
0.000283200236097    0.000282800253279    0.000282800233547    0.000282400250526    0.000282400231009    
0.000282000247787    0.000282000228484    0.000281600245061    0.000281600225972    0.000281200242349    
0.000281200223471    0.00028080023965    0.000280800220984    0.000280400236966    0.00028040021851    
0.000280000234295    0.000280000216048    0.000279600231639    0.0002796002136    0.000279200228997    
0.000279200211165    0.00027880022637    0.000278800208743    0.000278400223757    0.000278400206334    
0.000278000221159    0.00027800020394    0.000277600218576    0.000277600201558    0.000277200216008    
0.000277200199191    0.000276800213455    0.000276800196838    0.000276400210917    0.000276400194498    
0.000276000208395    0.000276000192173    0.000275600205887    0.000275600189862    0.000275200203396    
0.000275200187565    0.000274800200919    0.000274800185282    0.000274400198459    0.000274400183014    
0.000274000196014    0.00027400018076    0.000273600193585    0.000273600178521    0.000273200191172    
0.000273200176297    0.000272800188776    0.000272800174088    0.000272400186395    0.000272400171893    
0.00027200018403    0.000272000169713    0.000271600181682    0.000271600167548    0.00027120017935    
0.000271200165398    0.000270800177034    0.000270800163264    0.000270400174735    0.000270400161144    
0.000270000172452    0.00027000015904    0.000269600170186    0.000269600156951    0.000269200167937    
0.000269200154878    0.000268800165704    0.000268800152819    0.000268400163488    0.000268400150777    
0.000268000161289    0.000268000148749    0.000267600159107    0.000267600146738    0.000267200156942    
0.000267200144741    0.000266800154793    0.000266800142761    0.000266400152662    0.000266400140796    
0.000266000150548    0.000266000138847    0.00026560014845    0.000265600136914    0.00026520014637    
0.000265200134996    0.000264800144307    0.000264800133094    0.000264400142262    0.000264400131208    
0.000264000140233    0.000264000129338    0.000263600138222    0.000263600127484    0.000263200136227    
0.000263200125645    0.000262800134251    0.000262800123823    0.000262400132291    0.000262400122016    
0.000262000130349    0.000262000120225    0.000261600128424    0.000261600118451    0.000261200126516    
0.000261200116692    0.000260800124626    0.000260800114949    0.000260400122753    0.000260400113222    
0.000260000120897    0.000260000111512    0.000259600119058    0.000259600109817    0.000259200117237    
0.000259200108138    0.000258800115434    0.000258800106475    0.000258400113647    0.000258400104828    
0.000258000111878    0.000258000103197    0.000257600110127    0.000257600101582    0.000257200108392    
0.000257200099983    0.000256800106675    0.0002568000984    0.000256400104975    0.000256400096833    
0.000256000103292    0.000256000095281    0.000255600101627    0.000255600093746    0.000255200099979    
0.000255200092226    0.000254800098348    0.000254800090722    0.000254400096734    0.000254400089234    
0.000254000095137    0.000254000087762    0.000253600093557    0.000253600086305    0.000253200091995    
0.000253200084865    0.000252800090449    0.00025280008344    0.00025240008892    0.00025240008203    
0.000252000087409    0.000252000080636    0.000251600085914    0.000251600079258    0.000251200084436    
0.000251200077895    0.000250800082975    0.000250800076548    0.00025040008153    0.000250400075216    
0.000250000080103    0.0002500000739    0.000249600078692    0.000249600072599    0.000249200077297    
0.000249200071313    0.000248800075919    0.000248800070043    0.000248400074558    0.000248400068787    
0.000248000073213    0.000248000067547    0.000247600071884    0.000247600066322    0.000247200070572    
0.000247200065112    0.000246800069276    0.000246800063917    0.000246400067996    0.000246400062737    
0.000246000066732    0.000246000061572    0.000245600065485    0.000245600060421    0.000245200064253    
0.000245200059285    0.000244800063037    0.000244800058164    0.000244400061837    0.000244400057058    
0.000244000060653    0.000244000055966    0.000243600059484    0.000243600054888    0.000243200058331    
0.000243200053825    0.000242800057194    0.000242800052776    0.000242400056072    0.000242400051741    
0.000242000054965    0.00024200005072    0.000241600053873    0.000241600049714    0.000241200052797    
0.000241200048721    0.000240800051736    0.000240800047742    0.000240400050689    0.000240400046777    
0.000240000049658    0.000240000045826    0.000239600048641    0.000239600044889    0.000239200047639    
0.000239200043965    0.000238800046652    0.000238800043054    0.000238400045679    0.000238400042157    
0.00023800004472    0.000238000041273    0.000237600043776    0.000237600040402    0.000237200042846    
0.000237200039544    0.00023680004193    0.000236800038699    0.000236400041028    0.000236400037867    
0.00023600004014    0.000236000037048    0.000235600039265    0.000235600036242    0.000235200038405    
0.000235200035448    0.000234800037557    0.000234800034666    0.000234400036724    0.000234400033897    
0.000234000035903    0.00023400003314    0.000233600035096    0.000233600032396    0.000233200034301    
0.000233200031663    0.00023280003352    0.000232800030942    0.000232400032751    0.000232400030233    
0.000232000031996    0.000232000029536    0.000231600031252    0.000231600028851    0.000231200030522    
0.000231200028176    0.000230800029803    0.000230800027514    0.000230400029097    0.000230400026862    
0.000230000028403    0.000230000026222    0.00022960002772    0.000229600025592    0.00022920002705    
0.000229200024974    0.000228800026391    0.000228800024366    0.000228400025744    0.000228400023769    
0.000228000025108    0.000228000023182    0.000227600024483    0.000227600022606    0.00022720002387    
0.00022720002204    0.000226800023268    0.000226800021484    0.000226400022676    0.000226400020939    
0.000226000022095    0.000226000020403    0.000225600021525    0.000225600019877    0.000225200020965    
0.00022520001936    0.000224800020416    0.000224800018853    0.000224400019876    0.000224400018355    
0.000224000019347    0.000224000017867    0.000223600018828    0.000223600017388    0.000223200018318    
0.000223200016917    0.000222800017818    0.000222800016456    0.000222400017327    0.000222400016003    
0.000222000016846    0.000222000015558    0.000221600016373    0.000221600015123    0.00022120001591    
0.000221200014695    0.000220800015456    0.000220800014275    0.00022040001501    0.000220400013864    
0.000220000014572    0.00022000001346    0.000219600014143    0.000219600013064    0.000219200013723    
0.000219200012676    0.00021880001331    0.000218800012295    0.000218400012905    0.000218400011922    
0.000218000012508    0.000218000011555    0.000217600012119    0.000217600011196    0.000217200011737    
0.000217200010843    0.000216800011362    0.000216800010497    0.000216400010995    0.000216400010157    
0.000216000010634    0.000216000009824    0.00021560001028    0.000215600009498    0.000215200009933    
0.000215200009177    0.000214800009592    0.000214800008862    0.000214400009257    0.000214400008554    
0.000214000008929    0.00021400000825    0.000213600008607    0.000213600007953    0.00021320000829    
0.00021320000766    0.000212800007979    0.000212800007373    0.000212400007674    0.000212400007091    
0.000212000007374    0.000212000006814    0.000211600007079    0.000211600006541    0.000211200006789    
0.000211200006273    0.000210800006503    0.00021080000601    0.000210400006223    0.000210400005751    
0.000210000005947    0.000210000005496    0.000209600005675    0.000209600005245    0.000209200005407    
0.000209200004997    0.000208800005144    0.000208800004754    0.000208400004884    0.000208400004514    
0.000208000004628    0.000208000004277    0.000207600004375    0.000207600004043    0.000207200004125    
0.000207200003813    0.000206800003879    0.000206800003585    0.000206400003636    0.00020640000336    
0.000206000003395    0.000206000003138    0.000205600003157    0.000205600002918    0.000205200002921    
0.0002052000027    0.000204800002688    0.000204800002484    0.000204400002456    0.000204400002271    
0.000204000002227    0.000204000002059    0.000203600001999    0.000203600001848    0.000203200001773    
0.000203200001639    0.000202800001549    0.000202800001431    0.000202400001325    0.000202400001225    
0.000202000001103    0.000202000001019    0.000201600000881    0.000201600000814    0.00020120000066    
0.00020120000061    0.00020080000044    0.000200800000407    0.00020040000022    0.000200400000203    
0.0002    0.0002    0.00019959999978    0.000199599999797    0.00019919999956    
0.000199199999593    0.00019879999934    0.00019879999939    0.000198399999119    0.000198399999186    
0.000197999998897    0.000197999998981    0.000197599998675    0.000197599998775    0.000197199998451    
0.000197199998569    0.000196799998227    0.000196799998361    0.000196399998001    0.000196399998152    
0.000195999997773    0.000195999997941    0.000195599997544    0.000195599997729    0.000195199997312    
0.000195199997516    0.000194799997079    0.0001947999973    0.000194399996843    0.000194399997082    
0.000193999996605    0.000193999996862    0.000193599996364    0.00019359999664    0.000193199996121    
0.000193199996415    0.000192799995875    0.000192799996187    0.000192399995625    0.000192399995957    
0.000191999995372    0.000191999995723    0.000191599995116    0.000191599995486    0.000191199994856    
0.000191199995246    0.000190799994593    0.000190799995003    0.000190399994325    0.000190399994755    
0.000189999994053    0.000189999994504    0.000189599993777    0.000189599994249    0.000189199993497    
0.00018919999399    0.000188799993211    0.000188799993727    0.000188399992921    0.000188399993459    
0.000187999992626    0.000187999993186    0.000187599992326    0.000187599992909    0.000187199992021    
0.000187199992627    0.00018679999171    0.00018679999234    0.000186399991393    0.000186399992047    
0.000185999991071    0.00018599999175    0.000185599990743    0.000185599991446    0.000185199990408    
0.000185199991138    0.000184799990067    0.000184799990823    0.00018439998972    0.000184399990502    
0.000183999989366    0.000183999990176    0.000183599989005    0.000183599989843    0.000183199988638    
0.000183199989503    0.000182799988263    0.000182799989157    0.000182399987881    0.000182399988804    
0.000181999987492    0.000181999988445    0.000181599987095    0.000181599988078    0.00018119998669    
0.000181199987705    0.000180799986277    0.000180799987324    0.000180399985857    0.000180399986936    
0.000179999985428    0.00017999998654    0.00017959998499    0.000179599986136    0.000179199984544    
0.000179199985725    0.00017879998409    0.000178799985305    0.000178399983627    0.000178399984877    
0.000177999983154    0.000177999984442    0.000177599982673    0.000177599983997    0.000177199982182    
0.000177199983544    0.000176799981682    0.000176799983083    0.000176399981172    0.000176399982612    
0.000175999980653    0.000175999982133    0.000175599980124    0.000175599981645    0.000175199979584    
0.000175199981147    0.000174799979035    0.00017479998064    0.000174399978475    0.000174399980123    
0.000173999977905    0.000173999979597    0.000173599977324    0.000173599979061    0.000173199976732    
0.000173199978516    0.00017279997613    0.00017279997796    0.000172399975517    0.000172399977394    
0.000171999974892    0.000171999976818    0.000171599974256    0.000171599976231    0.000171199973609    
0.000171199975634    0.00017079997295    0.000170799975026    0.00017039997228    0.000170399974408    
0.000169999971597    0.000169999973778    0.000169599970903    0.000169599973138    0.000169199970197    
0.000169199972486    0.000168799969478    0.000168799971824    0.000168399968748    0.000168399971149    
0.000167999968004    0.000167999970464    0.000167599967249    0.000167599969767    0.00016719996648    
0.000167199969058    0.000166799965699    0.000166799968337    0.000166399964904    0.000166399967604    
0.000165999964097    0.00016599996686    0.000165599963276    0.000165599966103    0.000165199962443    
0.000165199965334    0.000164799961595    0.000164799964552    0.000164399960735    0.000164399963758    
0.00016399995986    0.000163999962952    0.000163599958972    0.000163599962133    0.00016319995807    
0.000163199961301    0.000162799957154    0.000162799960456    0.000162399956224    0.000162399959598    
0.00016199995528    0.000161999958727    0.000161599954321    0.000161599957843    0.000161199953348    
0.000161199956946    0.000160799952361    0.000160799956035    0.000160399951359    0.000160399955111    
0.000159999950342    0.000159999954174    0.000159599949311    0.000159599953223    0.000159199948264    
0.000159199952258    0.000158799947203    0.000158799951279    0.000158399946127    0.000158399950286    
0.000157999945035    0.00015799994928    0.000157599943928    0.000157599948259    0.000157199942806    
0.000157199947224    0.000156799941669    0.000156799946175    0.000156399940516    0.000156399945112    
0.000155999939347    0.000155999944034    0.000155599938163    0.000155599942942    0.000155199936963    
0.000155199941836    0.000154799935747    0.000154799940715    0.000154399934515    0.000154399939579    
0.000153999933268    0.000153999938428    0.000153599932004    0.000153599937263    0.000153199930724    
0.000153199936083    0.000152799929428    0.000152799934888    0.000152399928116    0.000152399933678    
0.000151999926787    0.000151999932453    0.000151599925442    0.000151599931213    0.000151199924081    
0.000151199929957    0.000150799922703    0.000150799928687    0.000150399921308    0.000150399927401    
0.000149999919897    0.0001499999261    0.00014959991847    0.000149599924784    0.000149199917025    
0.000149199923452    0.000148799915564    0.000148799922105    0.000148399914086    0.000148399920742    
0.000147999912591    0.000147999919364    0.00014759991108    0.00014759991797    0.000147199909551    
0.00014719991656    0.000146799908005    0.000146799915135    0.000146399906443    0.000146399913695    
0.000145999904863    0.000145999912238    0.000145599903266    0.000145599910766    0.000145199901652    
0.000145199909278    0.000144799900021    0.000144799907774    0.000144399898373    0.000144399906254    
0.000143999896708    0.000143999904719    0.000143599895025    0.000143599903167    0.000143199893325    
0.0001431999016    0.000142799891608    0.000142799900017    0.000142399889873    0.000142399898418    
0.000141999888122    0.000141999896803    0.000141599886353    0.000141599895172    0.000141199884566    
0.000141199893525    0.000140799882763    0.000140799891862    0.000140399880942    0.000140399890183    
0.000139999879103    0.000139999888488    0.000139599877247    0.000139599886778    0.000139199875374    
0.000139199885051    0.000138799873484    0.000138799883308    0.000138399871576    0.000138399881549    
0.000137999869651    0.000137999879775    0.000137599867709    0.000137599877984    0.000137199865749    
0.000137199876177    0.000136799863773    0.000136799874355    0.000136399861778    0.000136399872516    
0.000135999859767    0.000135999870662    0.000135599857738    0.000135599868792    0.000135199855693    
0.000135199866906    0.00013479985363    0.000134799865004    0.00013439985155    0.000134399863086    
0.000133999849452    0.000133999861153    0.000133599847338    0.000133599859204    0.000133199845207    
0.000133199857239    0.000132799843058    0.000132799855259    0.000132399840893    0.000132399853262    
0.000131999838711    0.000131999851251    0.000131599836512    0.000131599849223    0.000131199834296    
0.000131199847181    0.000130799832063    0.000130799845122    0.000130399829814    0.000130399843049    
0.000129999827548    0.00012999984096    0.000129599825265    0.000129599838856    0.000129199822966    
0.000129199836736    0.00012879982065    0.000128799834602    0.000128399818318    0.000128399832452    
0.00012799981597    0.000127999830287    0.000127599813605    0.000127599828107    0.000127199811224    
0.000127199825912    0.000126799808828    0.000126799823703    0.000126399806415    0.000126399821479    
0.000125999803986    0.00012599981924    0.000125599801541    0.000125599816986    0.000125199799081    
0.000125199814718    0.000124799796604    0.000124799812435    0.000124399794113    0.000124399810138    
0.000123999791605    0.000123999807827    0.000123599789083    0.000123599805502    0.000123199786545    
0.000123199803162    0.000122799783992    0.000122799800809    0.000122399781424    0.000122399798442    
0.000121999778841    0.00012199979606    0.000121599776243    0.000121599793666    0.00012119977363    
0.000121199791257    0.000120799771003    0.000120799788835    0.000120399768361    0.0001203997864    
0.000119999765705    0.000119999783952    0.000119599763034    0.00011959978149    0.00011919976035    
0.000119199779016    0.000118799757651    0.000118799776529    0.000118399754939    0.000118399774028    