Title = " tecplot file for 2D Cavity problem " 
variables = "x", "y", "z", "velX", "cellCentroidY" 
Zone T = "nmesh0" N = 153 E = 128 DATAPACKING = BLOCK, VARLOCATION = ([4-5]=CELLCENTERED), ZONETYPE=FEQUADRILATERAL
0.5    0.5    0.5    0.5    0.5    
0.5    0.5    0.5    0.5    0.46875    
0.46875    0.46875    0.46875    0.46875    0.46875    
0.46875    0.46875    0.46875    0.4375    0.4375    
0.4375    0.4375    0.4375    0.4375    0.4375    
0.4375    0.4375    0.40625    0.40625    0.40625    
0.40625    0.40625    0.40625    0.40625    0.40625    
0.40625    0.375    0.375    0.375    0.375    
0.375    0.375    0.375    0.375    0.375    
0.34375    0.34375    0.34375    0.34375    0.34375    
0.34375    0.34375    0.34375    0.34375    0.3125    
0.3125    0.3125    0.3125    0.3125    0.3125    
0.3125    0.3125    0.3125    0.28125    0.28125    
0.28125    0.28125    0.28125    0.28125    0.28125    
0.28125    0.28125    0.25    0.25    0.25    
0.25    0.25    0.25    0.25    0.25    
0.25    0.21875    0.21875    0.21875    0.21875    
0.21875    0.21875    0.21875    0.21875    0.21875    
0.1875    0.1875    0.1875    0.1875    0.1875    
0.1875    0.1875    0.1875    0.1875    0.15625    
0.15625    0.15625    0.15625    0.15625    0.15625    
0.15625    0.15625    0.15625    0.125    0.125    
0.125    0.125    0.125    0.125    0.125    
0.125    0.125    0.09375    0.09375    0.09375    
0.09375    0.09375    0.09375    0.09375    0.09375    
0.09375    0.0625    0.0625    0.0625    0.0625    
0.0625    0.0625    0.0625    0.0625    0.0625    
0.03125    0.03125    0.03125    0.03125    0.03125    
0.03125    0.03125    0.03125    0.03125    0.0    
0.0    0.0    0.0    0.0    0.0    
0.0    0.0    0.0    
1.0    0.96875    0.9375    0.90625    0.875    
0.84375    0.8125    0.78125    0.75    0.96875    
1.0    0.9375    0.90625    0.875    0.84375    
0.8125    0.78125    0.75    0.96875    1.0    
0.9375    0.90625    0.875    0.84375    0.8125    
0.78125    0.75    0.96875    1.0    0.9375    
0.90625    0.875    0.84375    0.8125    0.78125    
0.75    0.96875    1.0    0.9375    0.90625    
0.875    0.84375    0.8125    0.78125    0.75    
0.96875    1.0    0.9375    0.90625    0.875    
0.84375    0.8125    0.78125    0.75    0.96875    
1.0    0.9375    0.90625    0.875    0.84375    
0.8125    0.78125    0.75    0.96875    1.0    
0.9375    0.90625    0.875    0.84375    0.8125    
0.78125    0.75    0.96875    1.0    0.9375    
0.90625    0.875    0.84375    0.8125    0.78125    
0.75    0.96875    1.0    0.9375    0.90625    
0.875    0.84375    0.8125    0.78125    0.75    
0.96875    1.0    0.9375    0.90625    0.875    
0.84375    0.8125    0.78125    0.75    0.96875    
1.0    0.9375    0.90625    0.875    0.84375    
0.8125    0.78125    0.75    0.96875    1.0    
0.9375    0.90625    0.875    0.84375    0.8125    
0.78125    0.75    0.96875    1.0    0.9375    
0.90625    0.875    0.84375    0.8125    0.78125    
0.75    0.96875    1.0    0.9375    0.90625    
0.875    0.84375    0.8125    0.78125    0.75    
0.96875    1.0    0.9375    0.90625    0.875    
0.84375    0.8125    0.78125    0.75    0.96875    
0.9375    0.90625    0.875    0.84375    0.8125    
0.78125    0.75    1.0    
0.0    0.0    0.0    0.0    0.0    
0.0    0.0    0.0    0.0    0.0    
0.0    0.0    0.0    0.0    0.0    
0.0    0.0    0.0    0.0    0.0    
0.0    0.0    0.0    0.0    0.0    
0.0    0.0    0.0    0.0    0.0    
0.0    0.0    0.0    0.0    0.0    
0.0    0.0    0.0    0.0    0.0    
0.0    0.0    0.0    0.0    0.0    
0.0    0.0    0.0    0.0    0.0    
0.0    0.0    0.0    0.0    0.0    
0.0    0.0    0.0    0.0    0.0    
0.0    0.0    0.0    0.0    0.0    
0.0    0.0    0.0    0.0    0.0    
0.0    0.0    0.0    0.0    0.0    
0.0    0.0    0.0    0.0    0.0    
0.0    0.0    0.0    0.0    0.0    
0.0    0.0    0.0    0.0    0.0    
0.0    0.0    0.0    0.0    0.0    
0.0    0.0    0.0    0.0    0.0    
0.0    0.0    0.0    0.0    0.0    
0.0    0.0    0.0    0.0    0.0    
0.0    0.0    0.0    0.0    0.0    
0.0    0.0    0.0    0.0    0.0    
0.0    0.0    0.0    0.0    0.0    
0.0    0.0    0.0    0.0    0.0    
0.0    0.0    0.0    0.0    0.0    
0.0    0.0    0.0    0.0    0.0    
0.0    0.0    0.0    0.0    0.0    
0.0    0.0    0.0    0.0    0.0    
0.0    0.0    0.0    
387.375774382    362.248888607    387.254208914    337.48058255    361.890308887    
313.290286517    336.902572492    289.870491569    312.519785398    267.38036948    
288.940818651    245.94263436    266.327982457    225.643383287    244.80415025    
224.453210285    387.004961294    361.155565513    335.719613099    310.945463879    
287.045015114    264.186591366    242.492773804    222.042277781    386.615032044    
360.00737877    333.87485051    308.497441901    284.107186555    260.88059408    
238.938075804    218.348534004    386.062820156    358.38406701    331.274968265    
305.062266653    280.005695115    256.290522583    234.030401312    213.276826738    
385.315001722    356.191100849    327.778688881    300.470961325    274.562804661    
250.245399815    227.616180107    206.696819956    384.321087604    353.286645778    
323.177725083    294.480085097    267.529162382    242.5120919    219.492099331    
198.441087849    383.003790521    349.456669575    317.165480573    286.742491591    
258.561667862    232.781706061    209.399037458    188.304565479    381.241195424    
344.370761426    309.285036037    276.762732827    247.19331141    220.654027015    
197.017778948    176.047445387    378.83142517    337.500144667    298.84116932    
263.830092265    232.794817928    205.623311632    181.970605921    161.404984246    
375.415785757    327.957222751    284.749404309    246.92164898    214.5325564    
187.073795656    163.836348849    144.10948225    370.290280861    314.163556272    
265.27757618    224.574542942    191.339963032    164.302965735    142.19151156    
123.931404164    361.872062274    293.129145293    237.622801196    194.758983572    
161.949787047    136.606592686    116.695327484    100.746606492    345.940885216    
258.858161428    197.325499737    154.888803099    125.093608895    103.478290472    
87.2365991926    74.6313836044    308.974202377    199.037115466    137.932233225    
102.377120188    80.0575549602    64.9763611096    54.1413952049    45.9710922733    
199.893011202    90.3838648348    52.9891975057    36.6298894679    27.7831296457    
22.2282037993    18.3815282405    15.538042197    
0.984375    0.953125    0.984375    0.921875    0.953125    
0.890625    0.921875    0.859375    0.890625    0.828125    
0.859375    0.796875    0.828125    0.765625    0.796875    
0.765625    0.984375    0.953125    0.921875    0.890625    
0.859375    0.828125    0.796875    0.765625    0.984375    
0.953125    0.921875    0.890625    0.859375    0.828125    
0.796875    0.765625    0.984375    0.953125    0.921875    
0.890625    0.859375    0.828125    0.796875    0.765625    
0.984375    0.953125    0.921875    0.890625    0.859375    
0.828125    0.796875    0.765625    0.984375    0.953125    
0.921875    0.890625    0.859375    0.828125    0.796875    
0.765625    0.984375    0.953125    0.921875    0.890625    
0.859375    0.828125    0.796875    0.765625    0.984375    
0.953125    0.921875    0.890625    0.859375    0.828125    
0.796875    0.765625    0.984375    0.953125    0.921875    
0.890625    0.859375    0.828125    0.796875    0.765625    
0.984375    0.953125    0.921875    0.890625    0.859375    
0.828125    0.796875    0.765625    0.984375    0.953125    
0.921875    0.890625    0.859375    0.828125    0.796875    
0.765625    0.984375    0.953125    0.921875    0.890625    
0.859375    0.828125    0.796875    0.765625    0.984375    
0.953125    0.921875    0.890625    0.859375    0.828125    
0.796875    0.765625    0.984375    0.953125    0.921875    
0.890625    0.859375    0.828125    0.796875    0.765625    
0.984375    0.953125    0.921875    0.890625    0.859375    
0.828125    0.796875    0.765625    
10     2     1     11     
2     10     12     3     
10     11     20     19     
3     12     13     4     
12     10     19     21     
4     13     14     5     
13     12     21     22     
5     14     15     6     
14     13     22     23     
6     15     16     7     
15     14     23     24     
7     16     17     8     
16     15     24     25     
8     17     18     9     
17     16     25     26     
18     17     26     27     
19     20     29     28     
21     19     28     30     
22     21     30     31     
23     22     31     32     
24     23     32     33     
25     24     33     34     
26     25     34     35     
27     26     35     36     
28     29     38     37     
30     28     37     39     
31     30     39     40     
32     31     40     41     
33     32     41     42     
34     33     42     43     
35     34     43     44     
36     35     44     45     
37     38     47     46     
39     37     46     48     
40     39     48     49     
41     40     49     50     
42     41     50     51     
43     42     51     52     
44     43     52     53     
45     44     53     54     
46     47     56     55     
48     46     55     57     
49     48     57     58     
50     49     58     59     
51     50     59     60     
52     51     60     61     
53     52     61     62     
54     53     62     63     
55     56     65     64     
57     55     64     66     
58     57     66     67     
59     58     67     68     
60     59     68     69     
61     60     69     70     
62     61     70     71     
63     62     71     72     
64     65     74     73     
66     64     73     75     
67     66     75     76     
68     67     76     77     
69     68     77     78     
70     69     78     79     
71     70     79     80     
72     71     80     81     
73     74     83     82     
75     73     82     84     
76     75     84     85     
77     76     85     86     
78     77     86     87     
79     78     87     88     
80     79     88     89     
81     80     89     90     
82     83     92     91     
84     82     91     93     
85     84     93     94     
86     85     94     95     
87     86     95     96     
88     87     96     97     
89     88     97     98     
90     89     98     99     
91     92     101     100     
93     91     100     102     
94     93     102     103     
95     94     103     104     
96     95     104     105     
97     96     105     106     
98     97     106     107     
99     98     107     108     
100     101     110     109     
102     100     109     111     
103     102     111     112     
104     103     112     113     
105     104     113     114     
106     105     114     115     
107     106     115     116     
108     107     116     117     
109     110     119     118     
111     109     118     120     
112     111     120     121     
113     112     121     122     
114     113     122     123     
115     114     123     124     
116     115     124     125     
117     116     125     126     
118     119     128     127     
120     118     127     129     
121     120     129     130     
122     121     130     131     
123     122     131     132     
124     123     132     133     
125     124     133     134     
126     125     134     135     
127     128     137     136     
129     127     136     138     
130     129     138     139     
131     130     139     140     
132     131     140     141     
133     132     141     142     
134     133     142     143     
135     134     143     144     
136     137     153     145     
138     136     145     146     
139     138     146     147     
140     139     147     148     
141     140     148     149     
142     141     149     150     
143     142     150     151     
144     143     151     152     

