Title = " tecplot file for 2D Cavity problem " 
variables = "x", "y", "z", "velX", "cellCentroidY" 
Zone T = "nmesh0" N = 156 E = 128 DATAPACKING = BLOCK, VARLOCATION = ([4-5]=CELLCENTERED),  ZONETYPE=FEQUADRILATERAL 
0.96875    1.0    0.96875    0.96875    1.0    
0.96875    1.0    0.96875    1.0    0.96875    
1.0    0.96875    1.0    0.96875    1.0    
0.96875    1.0    0.96875    1.0    0.96875    
1.0    0.96875    1.0    0.9375    0.9375    
0.9375    0.9375    0.9375    0.9375    0.9375    
0.9375    0.9375    0.9375    0.9375    0.9375    
0.90625    0.90625    0.90625    0.90625    0.90625    
0.90625    0.90625    0.90625    0.90625    0.90625    
0.90625    0.90625    0.875    0.875    0.875    
0.875    0.875    0.875    0.875    0.875    
0.875    0.875    0.875    0.875    0.84375    
0.84375    0.84375    0.84375    0.84375    0.84375    
0.84375    0.84375    0.84375    0.84375    0.84375    
0.84375    0.8125    0.8125    0.8125    0.8125    
0.8125    0.8125    0.8125    0.8125    0.8125    
0.8125    0.8125    0.8125    0.78125    0.78125    
0.78125    0.78125    0.78125    0.78125    0.78125    
0.78125    0.78125    0.78125    0.78125    0.75    
0.75    0.75    0.75    0.75    0.75    
0.75    0.75    0.75    0.75    0.75    
0.75    0.71875    0.71875    0.71875    0.71875    
0.71875    0.71875    0.71875    0.71875    0.71875    
0.71875    0.71875    0.71875    0.6875    0.6875    
0.6875    0.6875    0.6875    0.6875    0.6875    
0.6875    0.6875    0.6875    0.6875    0.6875    
0.65625    0.65625    0.65625    0.65625    0.65625    
0.65625    0.65625    0.65625    0.65625    0.65625    
0.65625    0.65625    0.625    0.625    0.625    
0.625    0.625    0.625    0.625    0.625    
0.625    0.625    0.625    0.59375    0.59375    
1.0    
0.96875    0.96875    1.0    0.9375    0.9375    
0.90625    0.90625    0.875    0.875    0.84375    
0.84375    0.8125    0.8125    0.78125    0.78125    
0.75    0.75    0.71875    0.71875    0.6875    
0.6875    0.65625    0.65625    0.96875    1.0    
0.9375    0.90625    0.875    0.84375    0.8125    
0.78125    0.75    0.71875    0.6875    0.65625    
0.96875    1.0    0.9375    0.90625    0.875    
0.84375    0.8125    0.78125    0.75    0.71875    
0.6875    0.65625    0.96875    1.0    0.9375    
0.90625    0.875    0.84375    0.8125    0.78125    
0.75    0.71875    0.6875    0.65625    0.96875    
1.0    0.9375    0.90625    0.875    0.84375    
0.8125    0.78125    0.75    0.71875    0.6875    
0.65625    0.96875    1.0    0.9375    0.90625    
0.875    0.84375    0.8125    0.78125    0.75    
0.71875    0.6875    0.65625    0.96875    1.0    
0.9375    0.90625    0.875    0.84375    0.8125    
0.78125    0.75    0.71875    0.6875    0.96875    
1.0    0.9375    0.90625    0.875    0.84375    
0.8125    0.78125    0.75    0.71875    0.6875    
0.65625    0.96875    1.0    0.9375    0.90625    
0.875    0.84375    0.8125    0.78125    0.75    
0.71875    0.6875    0.65625    0.96875    1.0    
0.9375    0.90625    0.875    0.84375    0.8125    
0.78125    0.75    0.71875    0.6875    0.65625    
0.96875    1.0    0.9375    0.90625    0.875    
0.84375    0.8125    0.78125    0.75    0.71875    
0.6875    0.65625    0.96875    1.0    0.9375    
0.90625    0.875    0.8125    0.78125    0.75    
0.71875    0.6875    0.65625    0.71875    0.6875    
1.0    
0.0    0.0    0.0    0.0    0.0    
0.0    0.0    0.0    0.0    0.0    
0.0    0.0    0.0    0.0    0.0    
0.0    0.0    0.0    0.0    0.0    
0.0    0.0    0.0    0.0    0.0    
0.0    0.0    0.0    0.0    0.0    
0.0    0.0    0.0    0.0    0.0    
0.0    0.0    0.0    0.0    0.0    
0.0    0.0    0.0    0.0    0.0    
0.0    0.0    0.0    0.0    0.0    
0.0    0.0    0.0    0.0    0.0    
0.0    0.0    0.0    0.0    0.0    
0.0    0.0    0.0    0.0    0.0    
0.0    0.0    0.0    0.0    0.0    
0.0    0.0    0.0    0.0    0.0    
0.0    0.0    0.0    0.0    0.0    
0.0    0.0    0.0    0.0    0.0    
0.0    0.0    0.0    0.0    0.0    
0.0    0.0    0.0    0.0    0.0    
0.0    0.0    0.0    0.0    0.0    
0.0    0.0    0.0    0.0    0.0    
0.0    0.0    0.0    0.0    0.0    
0.0    0.0    0.0    0.0    0.0    
0.0    0.0    0.0    0.0    0.0    
0.0    0.0    0.0    0.0    0.0    
0.0    0.0    0.0    0.0    0.0    
0.0    0.0    0.0    0.0    0.0    
0.0    0.0    0.0    0.0    0.0    
0.0    0.0    0.0    0.0    0.0    
0.0    0.0    0.0    0.0    0.0    
0.0    0.0    0.0    0.0    0.0    
0.0    
199.893011201    90.3838648307    308.974202373    52.9891974985    199.037115455    
36.629889457    137.932233204    27.78312963    102.377120157    22.2282037772    
80.0575549151    18.3815282099    64.9763610464    15.5380421539    54.1413951176    
13.3375904061    45.9710921538    11.5763619567    39.5735479199    10.12994647    
34.4142729082    30.1554786669    345.94088521    258.858161411    197.325499707    
154.888803051    125.093608826    103.478290375    87.2365990593    74.6313834236    
64.5712362113    56.3517030951    49.5039201312    361.872062267    293.129145272    
237.622801159    194.758983514    161.949786963    136.606592566    116.695327319    
100.746606267    87.7283104045    76.9173831198    67.8023606513    370.290280854    
314.163556251    265.277576143    224.574542882    191.339962942    164.302965604    
142.191511377    123.931403913    108.678016008    95.7871583197    84.7723697069    
375.415785751    327.957222735    284.749404277    246.921648927    214.532556316    
187.073795528    163.836348663    144.10948199    127.265191377    112.780864421    
100.234123633    378.831425167    337.50014466    298.841169303    263.830092231    
232.794817865    205.623311523    181.970605749    161.404983995    143.492403065    
127.83698434    381.241195426    344.370761433    309.285036044    276.762732826    
247.193311386    220.654026945    197.017778809    176.047445162    157.462452535    
140.979271    383.003790529    349.456669601    317.165480614    286.742491643    
258.561667908    232.781706059    209.399037378    188.304565301    169.330690911    
152.284879421    384.32108762    353.286645827    323.177725168    294.480085223    
267.529162543    242.512092007    219.492099341    198.441087748    179.270866379    
136.971053845    161.858501864    146.064759748    385.315001744    356.191100919    
327.77868901    300.470961539    250.245400061    227.616180242    206.696819963    
187.453184992    169.8135019    153.683081809    386.062820182    358.384067096    
331.274968414    305.062266886    234.03040153    213.276826882    194.031551702    
176.259238953    159.89875818    181.293143931    
0.984375    0.953125    0.984375    0.921875    0.953125    
0.890625    0.921875    0.859375    0.890625    0.828125    
0.859375    0.796875    0.828125    0.765625    0.796875    
0.734375    0.765625    0.703125    0.734375    0.671875    
0.703125    0.671875    0.984375    0.953125    0.921875    
0.890625    0.859375    0.828125    0.796875    0.765625    
0.734375    0.703125    0.671875    0.984375    0.953125    
0.921875    0.890625    0.859375    0.828125    0.796875    
0.765625    0.734375    0.703125    0.671875    0.984375    
0.953125    0.921875    0.890625    0.859375    0.828125    
0.796875    0.765625    0.734375    0.703125    0.671875    
0.984375    0.953125    0.921875    0.890625    0.859375    
0.828125    0.796875    0.765625    0.734375    0.703125    
0.671875    0.984375    0.953125    0.921875    0.890625    
0.859375    0.828125    0.796875    0.765625    0.734375    
0.703125    0.984375    0.953125    0.921875    0.890625    
0.859375    0.828125    0.796875    0.765625    0.734375    
0.703125    0.984375    0.953125    0.921875    0.890625    
0.859375    0.828125    0.796875    0.765625    0.734375    
0.703125    0.984375    0.953125    0.921875    0.890625    
0.859375    0.828125    0.796875    0.765625    0.734375    
0.671875    0.703125    0.671875    0.984375    0.953125    
0.921875    0.890625    0.828125    0.796875    0.765625    
0.734375    0.703125    0.671875    0.984375    0.953125    
0.921875    0.890625    0.796875    0.765625    0.734375    
0.703125    0.671875    0.703125    
1     2     156     3     
2     1     4     5     
1     3     25     24     
5     4     6     7     
4     1     24     26     
7     6     8     9     
6     4     26     27     
9     8     10     11     
8     6     27     28     
11     10     12     13     
10     8     28     29     
13     12     14     15     
12     10     29     30     
15     14     16     17     
14     12     30     31     
17     16     18     19     
16     14     31     32     
19     18     20     21     
18     16     32     33     
21     20     22     23     
20     18     33     34     
22     20     34     35     
24     25     37     36     
26     24     36     38     
27     26     38     39     
28     27     39     40     
29     28     40     41     
30     29     41     42     
31     30     42     43     
32     31     43     44     
33     32     44     45     
34     33     45     46     
35     34     46     47     
36     37     49     48     
38     36     48     50     
39     38     50     51     
40     39     51     52     
41     40     52     53     
42     41     53     54     
43     42     54     55     
44     43     55     56     
45     44     56     57     
46     45     57     58     
47     46     58     59     
48     49     61     60     
50     48     60     62     
51     50     62     63     
52     51     63     64     
53     52     64     65     
54     53     65     66     
55     54     66     67     
56     55     67     68     
57     56     68     69     
58     57     69     70     
59     58     70     71     
60     61     73     72     
62     60     72     74     
63     62     74     75     
64     63     75     76     
65     64     76     77     
66     65     77     78     
67     66     78     79     
68     67     79     80     
69     68     80     81     
70     69     81     82     
71     70     82     83     
72     73     85     84     
74     72     84     86     
75     74     86     87     
76     75     87     88     
77     76     88     89     
78     77     89     90     
79     78     90     91     
80     79     91     92     
81     80     92     93     
82     81     93     94     
84     85     96     95     
86     84     95     97     
87     86     97     98     
88     87     98     99     
89     88     99     100     
90     89     100     101     
91     90     101     102     
92     91     102     103     
93     92     103     104     
94     93     104     105     
95     96     108     107     
97     95     107     109     
98     97     109     110     
99     98     110     111     
100     99     111     112     
101     100     112     113     
102     101     113     114     
103     102     114     115     
104     103     115     116     
105     104     116     117     
107     108     120     119     
109     107     119     121     
110     109     121     122     
111     110     122     123     
112     111     123     124     
113     112     124     125     
114     113     125     126     
115     114     126     127     
116     115     127     128     
105     117     118     106     
117     116     128     129     
118     117     129     130     
119     120     132     131     
121     119     131     133     
122     121     133     134     
123     122     134     135     
125     124     136     137     
126     125     137     138     
127     126     138     139     
128     127     139     140     
129     128     140     141     
130     129     141     142     
131     132     144     143     
133     131     143     145     
134     133     145     146     
135     134     146     147     
138     137     148     149     
139     138     149     150     
140     139     150     151     
141     140     151     152     
142     141     152     153     
152     151     154     155     

