Title = " tecplot file for 2D Cavity problem " 
variables = "x", "y", "z", "velX", "cellCentroidY" 
Zone T = "nmesh0" N = 157 E = 128 DATAPACKING = BLOCK, VARLOCATION = ([4-5]=CELLCENTERED),  ZONETYPE=FEQUADRILATERAL 
0.6875    0.6875    0.65625    0.65625    0.65625    
0.625    0.625    0.625    0.625    0.625    
0.625    0.625    0.625    0.625    0.625    
0.625    0.625    0.625    0.625    0.59375    
0.59375    0.59375    0.59375    0.59375    0.59375    
0.59375    0.59375    0.59375    0.59375    0.59375    
0.59375    0.59375    0.59375    0.5625    0.5625    
0.5625    0.5625    0.5625    0.5625    0.5625    
0.5625    0.5625    0.5625    0.5625    0.5625    
0.5625    0.53125    0.53125    0.53125    0.53125    
0.53125    0.53125    0.53125    0.53125    0.53125    
0.53125    0.53125    0.53125    0.53125    0.5    
0.5    0.5    0.5    0.5    0.5    
0.5    0.5    0.5    0.5    0.5    
0.5    0.46875    0.46875    0.46875    0.46875    
0.46875    0.46875    0.46875    0.46875    0.46875    
0.46875    0.46875    0.46875    0.4375    0.4375    
0.4375    0.4375    0.4375    0.4375    0.4375    
0.4375    0.4375    0.4375    0.4375    0.40625    
0.40625    0.40625    0.40625    0.40625    0.40625    
0.40625    0.40625    0.40625    0.40625    0.40625    
0.375    0.375    0.375    0.375    0.375    
0.375    0.375    0.375    0.375    0.375    
0.375    0.34375    0.34375    0.34375    0.34375    
0.34375    0.34375    0.34375    0.34375    0.34375    
0.34375    0.34375    0.3125    0.3125    0.3125    
0.3125    0.3125    0.3125    0.3125    0.3125    
0.3125    0.3125    0.3125    0.28125    0.28125    
0.28125    0.28125    0.28125    0.28125    0.28125    
0.28125    0.28125    0.28125    0.25    0.25    
0.25    0.25    0.25    0.25    0.25    
0.25    0.25    
0.875    0.84375    0.875    0.84375    0.8125    
1.0    0.96875    0.9375    0.90625    0.875    
0.84375    0.8125    0.78125    0.75    0.71875    
0.6875    0.65625    0.625    0.59375    0.96875    
1.0    0.9375    0.90625    0.875    0.84375    
0.8125    0.78125    0.75    0.71875    0.6875    
0.65625    0.625    0.59375    0.96875    1.0    
0.9375    0.90625    0.875    0.84375    0.8125    
0.78125    0.75    0.71875    0.6875    0.65625    
0.625    0.96875    1.0    0.9375    0.90625    
0.875    0.84375    0.8125    0.78125    0.75    
0.71875    0.6875    0.65625    0.625    0.96875    
1.0    0.9375    0.90625    0.875    0.84375    
0.8125    0.78125    0.75    0.71875    0.6875    
0.65625    0.96875    1.0    0.9375    0.90625    
0.875    0.84375    0.8125    0.78125    0.75    
0.71875    0.6875    0.65625    0.96875    1.0    
0.9375    0.90625    0.875    0.84375    0.8125    
0.78125    0.75    0.71875    0.6875    0.96875    
1.0    0.9375    0.90625    0.875    0.84375    
0.8125    0.78125    0.75    0.71875    0.6875    
0.96875    1.0    0.9375    0.90625    0.875    
0.84375    0.8125    0.78125    0.75    0.71875    
0.6875    0.96875    1.0    0.9375    0.90625    
0.875    0.84375    0.8125    0.78125    0.75    
0.71875    0.6875    0.96875    1.0    0.9375    
0.90625    0.875    0.84375    0.8125    0.78125    
0.75    0.71875    0.6875    0.96875    1.0    
0.9375    0.90625    0.875    0.84375    0.8125    
0.78125    0.75    0.71875    0.96875    1.0    
0.9375    0.90625    0.875    0.84375    0.8125    
0.78125    0.75    
0.0    0.0    0.0    0.0    0.0    
0.0    0.0    0.0    0.0    0.0    
0.0    0.0    0.0    0.0    0.0    
0.0    0.0    0.0    0.0    0.0    
0.0    0.0    0.0    0.0    0.0    
0.0    0.0    0.0    0.0    0.0    
0.0    0.0    0.0    0.0    0.0    
0.0    0.0    0.0    0.0    0.0    
0.0    0.0    0.0    0.0    0.0    
0.0    0.0    0.0    0.0    0.0    
0.0    0.0    0.0    0.0    0.0    
0.0    0.0    0.0    0.0    0.0    
0.0    0.0    0.0    0.0    0.0    
0.0    0.0    0.0    0.0    0.0    
0.0    0.0    0.0    0.0    0.0    
0.0    0.0    0.0    0.0    0.0    
0.0    0.0    0.0    0.0    0.0    
0.0    0.0    0.0    0.0    0.0    
0.0    0.0    0.0    0.0    0.0    
0.0    0.0    0.0    0.0    0.0    
0.0    0.0    0.0    0.0    0.0    
0.0    0.0    0.0    0.0    0.0    
0.0    0.0    0.0    0.0    0.0    
0.0    0.0    0.0    0.0    0.0    
0.0    0.0    0.0    0.0    0.0    
0.0    0.0    0.0    0.0    0.0    
0.0    0.0    0.0    0.0    0.0    
0.0    0.0    0.0    0.0    0.0    
0.0    0.0    0.0    0.0    0.0    
0.0    0.0    0.0    0.0    0.0    
0.0    0.0    0.0    0.0    0.0    
0.0    0.0    
274.562804918    280.005695403    256.290522866    284.107186726    260.880594258    
386.615032066    360.007378837    387.004961303    333.87485063    361.15556554    
308.497442071    335.719613138    310.945463918    287.045015142    238.938075957    
264.186591373    218.348534125    242.492773802    199.136955775    222.042277729    
202.874592888    164.780272029    149.542497976    168.386687567    135.511308968    
153.005971124    387.254208905    361.890308858    336.902572433    312.519785311    
288.940818524    266.327982295    244.804150042    224.453210005    184.996108578    
205.323029319    187.430009612    170.764398385    155.295704463    387.375774361    
362.248888544    337.480582433    313.29028635    289.870491346    267.38036921    
245.942634036    225.643382909    206.534304755    188.636502062    171.945191844    
387.375774354    362.248888523    337.480582399    313.290286304    289.870491289    
267.380369142    245.942633957    225.643382833    206.534304669    188.636501976    
171.945191762    387.254208883    361.890308794    336.902572333    312.519785171    
288.940818356    266.327982093    244.804149813    224.453209763    205.323029064    
187.430009355    387.004961268    361.155565434    335.719612965    310.945463688    
287.045014864    264.186591054    242.492773422    222.042277313    202.874592422    
184.996108093    386.615032023    360.007378706    333.874850402    308.497441747    
284.107186353    260.880593826    238.938075491    218.348533618    199.136955183    
181.29314337    386.06282014    358.384066964    331.274968186    305.062266541    
280.005694967    256.290522397    234.030401081    213.276826452    194.031551295    
176.259238619    385.315001713    356.191100821    327.778688835    300.470961258    
274.562804573    250.245399702    227.616179966    206.696819781    187.453184888    
169.81350192    384.321087602    353.286645773    323.177725073    294.480085081    
267.529162358    242.512091864    219.49209928    198.441087781    179.270866532    
383.003790526    349.456669593    317.165480602    286.742491633    258.56166791    
232.781706112    209.399037494    188.304565511    
0.859375    0.859375    0.828125    0.859375    0.828125    
0.984375    0.953125    0.984375    0.921875    0.953125    
0.890625    0.921875    0.890625    0.859375    0.796875    
0.828125    0.765625    0.796875    0.734375    0.765625    
0.734375    0.671875    0.640625    0.671875    0.609375    
0.640625    0.984375    0.953125    0.921875    0.890625    
0.859375    0.828125    0.796875    0.765625    0.703125    
0.734375    0.703125    0.671875    0.640625    0.984375    
0.953125    0.921875    0.890625    0.859375    0.828125    
0.796875    0.765625    0.734375    0.703125    0.671875    
0.984375    0.953125    0.921875    0.890625    0.859375    
0.828125    0.796875    0.765625    0.734375    0.703125    
0.671875    0.984375    0.953125    0.921875    0.890625    
0.859375    0.828125    0.796875    0.765625    0.734375    
0.703125    0.984375    0.953125    0.921875    0.890625    
0.859375    0.828125    0.796875    0.765625    0.734375    
0.703125    0.984375    0.953125    0.921875    0.890625    
0.859375    0.828125    0.796875    0.765625    0.734375    
0.703125    0.984375    0.953125    0.921875    0.890625    
0.859375    0.828125    0.796875    0.765625    0.734375    
0.703125    0.984375    0.953125    0.921875    0.890625    
0.859375    0.828125    0.796875    0.765625    0.734375    
0.703125    0.984375    0.953125    0.921875    0.890625    
0.859375    0.828125    0.796875    0.765625    0.734375    
0.984375    0.953125    0.921875    0.890625    0.859375    
0.828125    0.796875    0.765625    
3     4     2     1     
4     3     10     11     
4     11     12     5     
11     10     24     25     
12     11     25     26     
20     7     6     21     
7     20     22     8     
20     21     35     34     
8     22     23     9     
22     20     34     36     
9     23     24     10     
23     22     36     37     
24     23     37     38     
25     24     38     39     
12     26     27     13     
26     25     39     40     
13     27     28     14     
27     26     40     41     
14     28     29     15     
28     27     41     42     
29     28     42     43     
31     17     16     30     
17     31     32     18     
31     30     44     45     
18     32     33     19     
32     31     45     46     
34     35     48     47     
36     34     47     49     
37     36     49     50     
38     37     50     51     
39     38     51     52     
40     39     52     53     
41     40     53     54     
42     41     54     55     
29     43     44     30     
43     42     55     56     
44     43     56     57     
45     44     57     58     
46     45     58     59     
47     48     61     60     
49     47     60     62     
50     49     62     63     
51     50     63     64     
52     51     64     65     
53     52     65     66     
54     53     66     67     
55     54     67     68     
56     55     68     69     
57     56     69     70     
58     57     70     71     
60     61     73     72     
62     60     72     74     
63     62     74     75     
64     63     75     76     
65     64     76     77     
66     65     77     78     
67     66     78     79     
68     67     79     80     
69     68     80     81     
70     69     81     82     
71     70     82     83     
72     73     85     84     
74     72     84     86     
75     74     86     87     
76     75     87     88     
77     76     88     89     
78     77     89     90     
79     78     90     91     
80     79     91     92     
81     80     92     93     
82     81     93     94     
84     85     96     95     
86     84     95     97     
87     86     97     98     
88     87     98     99     
89     88     99     100     
90     89     100     101     
91     90     101     102     
92     91     102     103     
93     92     103     104     
94     93     104     105     
95     96     107     106     
97     95     106     108     
98     97     108     109     
99     98     109     110     
100     99     110     111     
101     100     111     112     
102     101     112     113     
103     102     113     114     
104     103     114     115     
105     104     115     116     
106     107     118     117     
108     106     117     119     
109     108     119     120     
110     109     120     121     
111     110     121     122     
112     111     122     123     
113     112     123     124     
114     113     124     125     
115     114     125     126     
116     115     126     127     
117     118     129     128     
119     117     128     130     
120     119     130     131     
121     120     131     132     
122     121     132     133     
123     122     133     134     
124     123     134     135     
125     124     135     136     
126     125     136     137     
127     126     137     138     
128     129     140     139     
130     128     139     141     
131     130     141     142     
132     131     142     143     
133     132     143     144     
134     133     144     145     
135     134     145     146     
136     135     146     147     
137     136     147     148     
139     140     150     149     
141     139     149     151     
142     141     151     152     
143     142     152     153     
144     143     153     154     
145     144     154     155     
146     145     155     156     
147     146     156     157     

