Title = " tecplot file for 2D Cavity problem " 
variables = "x", "y", "z", "velX", "cellCentroidY" 
Zone T = "nmesh0" N = 153 E = 128 DATAPACKING = BLOCK, VARLOCATION = ([4-5]=CELLCENTERED), ZONETYPE=FEQUADRILATERAL
0.96875    1.0    0.96875    0.96875    1.0    
0.96875    1.0    0.96875    1.0    0.96875    
1.0    0.96875    1.0    0.96875    1.0    
0.96875    1.0    0.96875    1.0    0.96875    
1.0    0.96875    1.0    0.96875    1.0    
0.96875    1.0    0.96875    1.0    0.96875    
1.0    0.96875    1.0    0.9375    0.9375    
0.9375    0.9375    0.9375    0.9375    0.9375    
0.9375    0.9375    0.9375    0.9375    0.9375    
0.9375    0.9375    0.9375    0.9375    0.9375    
0.90625    0.90625    0.90625    0.90625    0.90625    
0.90625    0.90625    0.90625    0.90625    0.90625    
0.90625    0.90625    0.90625    0.90625    0.90625    
0.90625    0.90625    0.875    0.875    0.875    
0.875    0.875    0.875    0.875    0.875    
0.875    0.875    0.875    0.875    0.875    
0.875    0.875    0.875    0.875    0.84375    
0.84375    0.84375    0.84375    0.84375    0.84375    
0.84375    0.84375    0.84375    0.84375    0.84375    
0.84375    0.84375    0.84375    0.84375    0.84375    
0.84375    0.8125    0.8125    0.8125    0.8125    
0.8125    0.8125    0.8125    0.8125    0.8125    
0.8125    0.8125    0.8125    0.8125    0.8125    
0.8125    0.8125    0.8125    0.78125    0.78125    
0.78125    0.78125    0.78125    0.78125    0.78125    
0.78125    0.78125    0.78125    0.78125    0.78125    
0.78125    0.78125    0.78125    0.78125    0.78125    
0.75    0.75    0.75    0.75    0.75    
0.75    0.75    0.75    0.75    0.75    
0.75    0.75    0.75    0.75    0.75    
0.75    0.75    1.0    
0.96875    0.96875    1.0    0.9375    0.9375    
0.90625    0.90625    0.875    0.875    0.84375    
0.84375    0.8125    0.8125    0.78125    0.78125    
0.75    0.75    0.71875    0.71875    0.6875    
0.6875    0.65625    0.65625    0.625    0.625    
0.59375    0.59375    0.5625    0.5625    0.53125    
0.53125    0.5    0.5    0.96875    1.0    
0.9375    0.90625    0.875    0.84375    0.8125    
0.78125    0.75    0.71875    0.6875    0.65625    
0.625    0.59375    0.5625    0.53125    0.5    
0.96875    1.0    0.9375    0.90625    0.875    
0.84375    0.8125    0.78125    0.75    0.71875    
0.6875    0.65625    0.625    0.59375    0.5625    
0.53125    0.5    0.96875    1.0    0.9375    
0.90625    0.875    0.84375    0.8125    0.78125    
0.75    0.71875    0.6875    0.65625    0.625    
0.59375    0.5625    0.53125    0.5    0.96875    
1.0    0.9375    0.90625    0.875    0.84375    
0.8125    0.78125    0.75    0.71875    0.6875    
0.65625    0.625    0.59375    0.5625    0.53125    
0.5    0.96875    1.0    0.9375    0.90625    
0.875    0.84375    0.8125    0.78125    0.75    
0.71875    0.6875    0.65625    0.625    0.59375    
0.5625    0.53125    0.5    0.96875    1.0    
0.9375    0.90625    0.875    0.84375    0.8125    
0.78125    0.75    0.71875    0.6875    0.65625    
0.625    0.59375    0.5625    0.53125    0.5    
0.96875    1.0    0.9375    0.90625    0.875    
0.84375    0.8125    0.78125    0.75    0.71875    
0.6875    0.65625    0.625    0.59375    0.5625    
0.53125    0.5    1.0    
0.0    0.0    0.0    0.0    0.0    
0.0    0.0    0.0    0.0    0.0    
0.0    0.0    0.0    0.0    0.0    
0.0    0.0    0.0    0.0    0.0    
0.0    0.0    0.0    0.0    0.0    
0.0    0.0    0.0    0.0    0.0    
0.0    0.0    0.0    0.0    0.0    
0.0    0.0    0.0    0.0    0.0    
0.0    0.0    0.0    0.0    0.0    
0.0    0.0    0.0    0.0    0.0    
0.0    0.0    0.0    0.0    0.0    
0.0    0.0    0.0    0.0    0.0    
0.0    0.0    0.0    0.0    0.0    
0.0    0.0    0.0    0.0    0.0    
0.0    0.0    0.0    0.0    0.0    
0.0    0.0    0.0    0.0    0.0    
0.0    0.0    0.0    0.0    0.0    
0.0    0.0    0.0    0.0    0.0    
0.0    0.0    0.0    0.0    0.0    
0.0    0.0    0.0    0.0    0.0    
0.0    0.0    0.0    0.0    0.0    
0.0    0.0    0.0    0.0    0.0    
0.0    0.0    0.0    0.0    0.0    
0.0    0.0    0.0    0.0    0.0    
0.0    0.0    0.0    0.0    0.0    
0.0    0.0    0.0    0.0    0.0    
0.0    0.0    0.0    0.0    0.0    
0.0    0.0    0.0    0.0    0.0    
0.0    0.0    0.0    0.0    0.0    
0.0    0.0    0.0    0.0    0.0    
0.0    0.0    0.0    
199.8930112    90.3838648298    308.974202372    52.989197497    199.037115452    
36.6298894548    137.9322332    27.7831296272    102.37712015    22.228203774    
80.0575549068    18.3815282065    64.9763610365    15.5380421507    54.1413951068    
13.3375904041    45.9710921434    11.5763619568    39.5735479119    10.1299464741    
34.4142729059    8.91789174149    30.1554786711    7.88573706474    26.5737751685    
6.99520145851    23.5155921227    6.21850156802    20.8717686596    5.53490187738    
18.5624045031    16.5274707892    345.940885209    258.858161406    197.325499699    
154.88880304    125.093608812    103.478290358    87.2365990399    74.6313834033    
64.5712361931    56.3517030827    49.5039201342    43.7061381375    38.731087596    
34.4138765526    30.631876994    27.2917849097    361.872062265    293.129145266    
237.622801149    194.758983499    161.949786943    136.606592542    116.69532729    
100.746606235    87.7283103727    76.9173830957    67.8023606434    60.0157696489    
53.2887435687    47.4207729584    42.2594420088    37.6867059081    370.290280851    
314.163556243    265.27757613    224.574542864    191.339962919    164.302965576    
142.191511343    123.931403873    108.678015964    95.7871582813    84.7723696916    
75.2658362427    66.9873440678    59.7210297001    53.298412171    47.5861260569    
375.415785748    327.957222726    284.749404263    246.921648908    214.532556292    
187.0737955    163.836348629    144.109481949    127.265191327    112.78086437    
100.234123595    89.2878615584    79.6737667551    71.1775895982    63.6270509127    
56.8823267074    378.831425164    337.50014465    298.841169288    263.830092211    
232.794817842    205.6233115    181.970605724    161.404983965    143.492403023    
127.836984275    114.095398757    101.977719636    91.2422717908    81.688511019    
73.1498751667    65.4874136589    381.241195422    344.370761423    309.285036028    
276.762732809    247.193311366    220.654026935    197.017778805    176.047445162    
157.462452524    140.97927095    126.33276752    113.285346436    101.629089749    
91.1843075151    81.7965250677    73.3330203864    
0.984375    0.953125    0.984375    0.921875    0.953125    
0.890625    0.921875    0.859375    0.890625    0.828125    
0.859375    0.796875    0.828125    0.765625    0.796875    
0.734375    0.765625    0.703125    0.734375    0.671875    
0.703125    0.640625    0.671875    0.609375    0.640625    
0.578125    0.609375    0.546875    0.578125    0.515625    
0.546875    0.515625    0.984375    0.953125    0.921875    
0.890625    0.859375    0.828125    0.796875    0.765625    
0.734375    0.703125    0.671875    0.640625    0.609375    
0.578125    0.546875    0.515625    0.984375    0.953125    
0.921875    0.890625    0.859375    0.828125    0.796875    
0.765625    0.734375    0.703125    0.671875    0.640625    
0.609375    0.578125    0.546875    0.515625    0.984375    
0.953125    0.921875    0.890625    0.859375    0.828125    
0.796875    0.765625    0.734375    0.703125    0.671875    
0.640625    0.609375    0.578125    0.546875    0.515625    
0.984375    0.953125    0.921875    0.890625    0.859375    
0.828125    0.796875    0.765625    0.734375    0.703125    
0.671875    0.640625    0.609375    0.578125    0.546875    
0.515625    0.984375    0.953125    0.921875    0.890625    
0.859375    0.828125    0.796875    0.765625    0.734375    
0.703125    0.671875    0.640625    0.609375    0.578125    
0.546875    0.515625    0.984375    0.953125    0.921875    
0.890625    0.859375    0.828125    0.796875    0.765625    
0.734375    0.703125    0.671875    0.640625    0.609375    
0.578125    0.546875    0.515625    
1     2     153     3     
2     1     4     5     
1     3     35     34     
5     4     6     7     
4     1     34     36     
7     6     8     9     
6     4     36     37     
9     8     10     11     
8     6     37     38     
11     10     12     13     
10     8     38     39     
13     12     14     15     
12     10     39     40     
15     14     16     17     
14     12     40     41     
17     16     18     19     
16     14     41     42     
19     18     20     21     
18     16     42     43     
21     20     22     23     
20     18     43     44     
23     22     24     25     
22     20     44     45     
25     24     26     27     
24     22     45     46     
27     26     28     29     
26     24     46     47     
29     28     30     31     
28     26     47     48     
31     30     32     33     
30     28     48     49     
32     30     49     50     
34     35     52     51     
36     34     51     53     
37     36     53     54     
38     37     54     55     
39     38     55     56     
40     39     56     57     
41     40     57     58     
42     41     58     59     
43     42     59     60     
44     43     60     61     
45     44     61     62     
46     45     62     63     
47     46     63     64     
48     47     64     65     
49     48     65     66     
50     49     66     67     
51     52     69     68     
53     51     68     70     
54     53     70     71     
55     54     71     72     
56     55     72     73     
57     56     73     74     
58     57     74     75     
59     58     75     76     
60     59     76     77     
61     60     77     78     
62     61     78     79     
63     62     79     80     
64     63     80     81     
65     64     81     82     
66     65     82     83     
67     66     83     84     
68     69     86     85     
70     68     85     87     
71     70     87     88     
72     71     88     89     
73     72     89     90     
74     73     90     91     
75     74     91     92     
76     75     92     93     
77     76     93     94     
78     77     94     95     
79     78     95     96     
80     79     96     97     
81     80     97     98     
82     81     98     99     
83     82     99     100     
84     83     100     101     
85     86     103     102     
87     85     102     104     
88     87     104     105     
89     88     105     106     
90     89     106     107     
91     90     107     108     
92     91     108     109     
93     92     109     110     
94     93     110     111     
95     94     111     112     
96     95     112     113     
97     96     113     114     
98     97     114     115     
99     98     115     116     
100     99     116     117     
101     100     117     118     
102     103     120     119     
104     102     119     121     
105     104     121     122     
106     105     122     123     
107     106     123     124     
108     107     124     125     
109     108     125     126     
110     109     126     127     
111     110     127     128     
112     111     128     129     
113     112     129     130     
114     113     130     131     
115     114     131     132     
116     115     132     133     
117     116     133     134     
118     117     134     135     
119     120     137     136     
121     119     136     138     
122     121     138     139     
123     122     139     140     
124     123     140     141     
125     124     141     142     
126     125     142     143     
127     126     143     144     
128     127     144     145     
129     128     145     146     
130     129     146     147     
131     130     147     148     
132     131     148     149     
133     132     149     150     
134     133     150     151     
135     134     151     152     

