Title = " tecplot file for 2D Cavity problem " 
variables = "x", "y", "z", "velX", "cellCentroidY" 
Zone T = "nmesh0" N = 164 E = 128 DATAPACKING = BLOCK, VARLOCATION = ([4-5]=CELLCENTERED),  ZONETYPE=FEQUADRILATERAL 
0.59375    0.59375    0.59375    0.59375    0.5625    
0.5625    0.5625    0.5625    0.5625    0.5625    
0.53125    0.53125    0.53125    0.53125    0.53125    
0.53125    0.53125    0.53125    0.5    0.5    
0.5    0.5    0.5    0.5    0.5    
0.5    0.46875    0.46875    0.46875    0.46875    
0.46875    0.46875    0.46875    0.46875    0.46875    
0.4375    0.4375    0.4375    0.4375    0.4375    
0.4375    0.4375    0.4375    0.4375    0.40625    
0.40625    0.40625    0.40625    0.40625    0.40625    
0.40625    0.40625    0.40625    0.40625    0.375    
0.375    0.375    0.375    0.375    0.375    
0.375    0.375    0.375    0.375    0.34375    
0.34375    0.34375    0.34375    0.34375    0.34375    
0.34375    0.34375    0.34375    0.34375    0.3125    
0.3125    0.3125    0.3125    0.3125    0.3125    
0.3125    0.3125    0.3125    0.28125    0.28125    
0.28125    0.28125    0.25    0.25    0.25    
0.25    0.25    0.25    0.25    0.21875    
0.21875    0.21875    0.21875    0.21875    0.21875    
0.21875    0.1875    0.1875    0.1875    0.1875    
0.1875    0.1875    0.1875    0.1875    0.15625    
0.15625    0.15625    0.15625    0.15625    0.15625    
0.15625    0.15625    0.15625    0.125    0.125    
0.125    0.125    0.125    0.125    0.125    
0.125    0.125    0.09375    0.09375    0.09375    
0.09375    0.09375    0.09375    0.09375    0.09375    
0.09375    0.0625    0.0625    0.0625    0.0625    
0.0625    0.0625    0.0625    0.0625    0.0625    
0.03125    0.03125    0.03125    0.03125    0.03125    
0.03125    0.03125    0.03125    0.03125    0.03125    
0.0    0.0    0.0    0.0    0.0    
0.0    0.0    0.0    0.0    
0.5625    0.53125    0.5    0.46875    0.625    
0.59375    0.5625    0.53125    0.5    0.46875    
0.625    0.65625    0.59375    0.5625    0.53125    
0.5    0.46875    0.4375    0.65625    0.625    
0.59375    0.5625    0.53125    0.5    0.46875    
0.4375    0.65625    0.6875    0.625    0.59375    
0.5625    0.53125    0.5    0.46875    0.4375    
0.6875    0.65625    0.625    0.59375    0.5625    
0.53125    0.5    0.46875    0.4375    0.6875    
0.65625    0.625    0.59375    0.5625    0.53125    
0.5    0.46875    0.4375    0.40625    0.6875    
0.65625    0.625    0.59375    0.5625    0.53125    
0.5    0.46875    0.4375    0.40625    0.6875    
0.65625    0.625    0.59375    0.5625    0.53125    
0.5    0.46875    0.4375    0.40625    0.6875    
0.65625    0.625    0.59375    0.5625    0.53125    
0.5    0.46875    0.4375    0.5    0.46875    
0.4375    0.40625    0.5    0.53125    0.46875    
0.4375    0.40625    0.375    0.34375    0.53125    
0.5    0.46875    0.4375    0.40625    0.375    
0.34375    0.53125    0.5625    0.5    0.46875    
0.4375    0.40625    0.375    0.34375    0.5625    
0.53125    0.5    0.46875    0.4375    0.40625    
0.375    0.34375    0.3125    0.5625    0.53125    
0.5    0.46875    0.4375    0.40625    0.375    
0.34375    0.3125    0.5625    0.53125    0.5    
0.46875    0.4375    0.40625    0.375    0.34375    
0.3125    0.5625    0.53125    0.5    0.46875    
0.4375    0.40625    0.375    0.34375    0.3125    
0.5625    0.59375    0.53125    0.5    0.46875    
0.4375    0.40625    0.375    0.34375    0.3125    
0.59375    0.5625    0.53125    0.5    0.46875    
0.4375    0.40625    0.375    0.34375    
0.0    0.0    0.0    0.0    0.0    
0.0    0.0    0.0    0.0    0.0    
0.0    0.0    0.0    0.0    0.0    
0.0    0.0    0.0    0.0    0.0    
0.0    0.0    0.0    0.0    0.0    
0.0    0.0    0.0    0.0    0.0    
0.0    0.0    0.0    0.0    0.0    
0.0    0.0    0.0    0.0    0.0    
0.0    0.0    0.0    0.0    0.0    
0.0    0.0    0.0    0.0    0.0    
0.0    0.0    0.0    0.0    0.0    
0.0    0.0    0.0    0.0    0.0    
0.0    0.0    0.0    0.0    0.0    
0.0    0.0    0.0    0.0    0.0    
0.0    0.0    0.0    0.0    0.0    
0.0    0.0    0.0    0.0    0.0    
0.0    0.0    0.0    0.0    0.0    
0.0    0.0    0.0    0.0    0.0    
0.0    0.0    0.0    0.0    0.0    
0.0    0.0    0.0    0.0    0.0    
0.0    0.0    0.0    0.0    0.0    
0.0    0.0    0.0    0.0    0.0    
0.0    0.0    0.0    0.0    0.0    
0.0    0.0    0.0    0.0    0.0    
0.0    0.0    0.0    0.0    0.0    
0.0    0.0    0.0    0.0    0.0    
0.0    0.0    0.0    0.0    0.0    
0.0    0.0    0.0    0.0    0.0    
0.0    0.0    0.0    0.0    0.0    
0.0    0.0    0.0    0.0    0.0    
0.0    0.0    0.0    0.0    0.0    
0.0    0.0    0.0    0.0    0.0    
0.0    0.0    0.0    0.0    
113.640881536    102.544933606    115.557425159    92.3383152232    104.321136052    
93.9732922915    140.977772947    127.753264489    142.06312826    128.77693699    
116.514418337    105.20889301    94.7911247639    156.434674909    156.43467474    
142.063128018    128.77693675    116.514418152    105.208892861    85.1911890077    
94.7911246321    85.1911889635    155.295703861    140.977772197    127.753263801    
115.557424619    104.321135625    93.9732919164    84.4425925507    170.764398081    
168.38668704    153.005970321    138.798993062    125.700921597    113.640880866    
102.544933078    92.3383148353    82.9470553712    164.780271378    149.542497203    
135.511308099    122.610548626    110.760244142    99.879400961    89.8879789599    
80.7082187102    159.898757709    144.872438911    131.093193478    118.469720636    
106.910146091    96.3244476454    86.6259813174    72.26547851    77.7323618995    
69.5658921495    153.683081746    138.955307161    125.519306249    113.264994328    
102.086171919    91.8822621961    82.5591367529    74.029355421    77.6989479957    
69.6138791165    72.0634837473    64.5068453676    65.679468096    57.6130817869    
58.7369366439    52.419302987    73.3330200026    65.487413494    58.5844318997    
52.3421300762    46.6510872856    46.6761060883    41.3656559388    41.5135789502    
36.7911865709    56.8823266046    50.8287158455    45.3710456619    40.4294123038    
35.9359357576    31.8322747187    63.6270510012    53.2984123013    47.5861260157    
42.4770591905    37.8839243887    33.7345616771    29.9684770335    26.5342656686    
42.2594421325    37.6867059016    33.6094704886    29.9530309995    26.6564329579    
23.6691450247    23.3876730423    20.9486378265    18.4585969631    30.6318771001    
27.2917849204    24.3210858451    21.6622961445    19.2689941168    17.1030322721    
15.1325436437    13.3304917913    18.5624045755    16.5274708032    14.7207918193    
13.1060736107    11.6542150884    10.3414462996    9.14801268155    8.05722762316    
6.2185015932    5.53490188264    4.92853701832    4.38699139098    3.90034632694    
3.46052515722    3.06083316    6.99520149368    
0.546875    0.515625    0.546875    0.484375    0.515625    
0.484375    0.609375    0.578125    0.609375    0.578125    
0.546875    0.515625    0.484375    0.640625    0.640625    
0.609375    0.578125    0.546875    0.515625    0.453125    
0.484375    0.453125    0.640625    0.609375    0.578125    
0.546875    0.515625    0.484375    0.453125    0.671875    
0.671875    0.640625    0.609375    0.578125    0.546875    
0.515625    0.484375    0.453125    0.671875    0.640625    
0.609375    0.578125    0.546875    0.515625    0.484375    
0.453125    0.671875    0.640625    0.609375    0.578125    
0.546875    0.515625    0.484375    0.421875    0.453125    
0.421875    0.671875    0.640625    0.609375    0.578125    
0.546875    0.515625    0.484375    0.453125    0.484375    
0.453125    0.484375    0.453125    0.484375    0.421875    
0.453125    0.421875    0.515625    0.515625    0.484375    
0.453125    0.390625    0.421875    0.359375    0.390625    
0.359375    0.515625    0.484375    0.453125    0.421875    
0.390625    0.359375    0.546875    0.546875    0.515625    
0.484375    0.453125    0.421875    0.390625    0.359375    
0.546875    0.515625    0.484375    0.453125    0.421875    
0.390625    0.328125    0.359375    0.328125    0.546875    
0.515625    0.484375    0.453125    0.421875    0.390625    
0.359375    0.328125    0.546875    0.515625    0.484375    
0.453125    0.421875    0.390625    0.359375    0.328125    
0.546875    0.515625    0.484375    0.453125    0.421875    
0.390625    0.359375    0.578125    
8     2     1     7     
2     8     9     3     
8     7     14     15     
3     9     10     4     
9     8     15     16     
10     9     16     17     
13     6     5     11     
6     13     14     7     
13     11     20     21     
14     13     21     22     
15     14     22     23     
16     15     23     24     
17     16     24     25     
20     11     12     19     
20     19     27     29     
21     20     29     30     
22     21     30     31     
23     22     31     32     
24     23     32     33     
17     25     26     18     
25     24     33     34     
26     25     34     35     
29     27     37     38     
30     29     38     39     
31     30     39     40     
32     31     40     41     
33     32     41     42     
34     33     42     43     
35     34     43     44     
37     27     28     36     
37     36     45     46     
38     37     46     47     
39     38     47     48     
40     39     48     49     
41     40     49     50     
42     41     50     51     
43     42     51     52     
44     43     52     53     
46     45     55     56     
47     46     56     57     
48     47     57     58     
49     48     58     59     
50     49     59     60     
51     50     60     61     
52     51     61     62     
53     52     62     63     
56     55     65     66     
57     56     66     67     
58     57     67     68     
59     58     68     69     
60     59     69     70     
61     60     70     71     
62     61     71     72     
53     63     64     54     
63     62     72     73     
64     63     73     74     
66     65     75     76     
67     66     76     77     
68     67     77     78     
69     68     78     79     
70     69     79     80     
71     70     80     81     
72     71     81     82     
73     72     82     83     
82     81     84     85     
83     82     85     86     
85     84     88     90     
86     85     90     91     
90     88     96     97     
86     91     92     87     
91     90     97     98     
92     91     98     99     
96     88     89     95     
96     95     102     104     
97     96     104     105     
98     97     105     106     
92     99     100     93     
99     98     106     107     
93     100     101     94     
100     99     107     108     
101     100     108     109     
104     102     111     112     
105     104     112     113     
106     105     113     114     
107     106     114     115     
108     107     115     116     
109     108     116     117     
111     102     103     110     
111     110     119     120     
112     111     120     121     
113     112     121     122     
114     113     122     123     
115     114     123     124     
116     115     124     125     
117     116     125     126     
120     119     128     129     
121     120     129     130     
122     121     130     131     
123     122     131     132     
124     123     132     133     
125     124     133     134     
117     126     127     118     
126     125     134     135     
127     126     135     136     
129     128     137     138     
130     129     138     139     
131     130     139     140     
132     131     140     141     
133     132     141     142     
134     133     142     143     
135     134     143     144     
136     135     144     145     
138     137     146     148     
139     138     148     149     
140     139     149     150     
141     140     150     151     
142     141     151     152     
143     142     152     153     
144     143     153     154     
145     144     154     155     
148     146     157     158     
149     148     158     159     
150     149     159     160     
151     150     160     161     
152     151     161     162     
153     152     162     163     
154     153     163     164     
157     146     147     156     

