Title = " tecplot file for 2D Cavity problem " 
variables = "x", "y", "z", "velX", "cellCentroidY" 
Zone T = "nmesh0" N = 156 E = 128 DATAPACKING = BLOCK, VARLOCATION = ([4-5]=CELLCENTERED),  ZONETYPE=FEQUADRILATERAL 
0.6875    0.6875    0.6875    0.6875    0.6875    
0.6875    0.65625    0.65625    0.65625    0.65625    
0.65625    0.65625    0.65625    0.625    0.625    
0.625    0.625    0.625    0.625    0.625    
0.625    0.625    0.625    0.59375    0.59375    
0.59375    0.59375    0.59375    0.59375    0.59375    
0.59375    0.59375    0.59375    0.59375    0.59375    
0.59375    0.59375    0.59375    0.5625    0.5625    
0.5625    0.5625    0.5625    0.5625    0.5625    
0.5625    0.5625    0.5625    0.5625    0.5625    
0.5625    0.5625    0.5625    0.5625    0.53125    
0.53125    0.53125    0.53125    0.53125    0.53125    
0.53125    0.53125    0.53125    0.53125    0.53125    
0.53125    0.53125    0.53125    0.53125    0.53125    
0.5    0.5    0.5    0.5    0.5    
0.5    0.5    0.5    0.5    0.5    
0.5    0.5    0.5    0.5    0.5    
0.46875    0.46875    0.46875    0.46875    0.46875    
0.46875    0.46875    0.46875    0.46875    0.46875    
0.46875    0.46875    0.46875    0.46875    0.46875    
0.4375    0.4375    0.4375    0.4375    0.4375    
0.4375    0.4375    0.4375    0.4375    0.4375    
0.4375    0.4375    0.4375    0.4375    0.4375    
0.40625    0.40625    0.40625    0.40625    0.40625    
0.40625    0.40625    0.40625    0.40625    0.40625    
0.40625    0.40625    0.40625    0.40625    0.40625    
0.375    0.375    0.375    0.375    0.375    
0.375    0.375    0.375    0.375    0.375    
0.375    0.375    0.375    0.375    0.34375    
0.34375    0.34375    0.34375    0.34375    0.34375    
0.34375    0.34375    0.34375    0.34375    0.3125    
0.3125    
0.34375    0.3125    0.28125    0.25    0.21875    
0.1875    0.34375    0.375    0.3125    0.28125    
0.25    0.21875    0.1875    0.46875    0.4375    
0.40625    0.375    0.34375    0.3125    0.28125    
0.25    0.21875    0.1875    0.46875    0.4375    
0.40625    0.375    0.34375    0.3125    0.28125    
0.25    0.21875    0.1875    0.15625    0.125    
0.09375    0.0625    0.03125    0.46875    0.4375    
0.40625    0.375    0.34375    0.3125    0.28125    
0.25    0.21875    0.1875    0.15625    0.125    
0.09375    0.0625    0.03125    0.0    0.46875    
0.4375    0.40625    0.375    0.34375    0.3125    
0.28125    0.25    0.21875    0.1875    0.15625    
0.125    0.09375    0.0625    0.03125    0.0    
0.4375    0.40625    0.375    0.34375    0.3125    
0.28125    0.25    0.21875    0.1875    0.15625    
0.125    0.09375    0.0625    0.03125    0.0    
0.4375    0.40625    0.375    0.34375    0.3125    
0.28125    0.25    0.21875    0.1875    0.15625    
0.125    0.09375    0.0625    0.03125    0.0    
0.4375    0.40625    0.375    0.34375    0.3125    
0.28125    0.25    0.21875    0.1875    0.15625    
0.125    0.09375    0.0625    0.03125    0.0    
0.4375    0.40625    0.375    0.34375    0.3125    
0.28125    0.25    0.21875    0.1875    0.15625    
0.125    0.09375    0.0625    0.03125    0.0    
0.40625    0.375    0.34375    0.3125    0.28125    
0.25    0.21875    0.1875    0.15625    0.125    
0.09375    0.0625    0.03125    0.0    0.28125    
0.25    0.21875    0.1875    0.15625    0.125    
0.09375    0.0625    0.03125    0.0    0.03125    
0.0    
0.0    0.0    0.0    0.0    0.0    
0.0    0.0    0.0    0.0    0.0    
0.0    0.0    0.0    0.0    0.0    
0.0    0.0    0.0    0.0    0.0    
0.0    0.0    0.0    0.0    0.0    
0.0    0.0    0.0    0.0    0.0    
0.0    0.0    0.0    0.0    0.0    
0.0    0.0    0.0    0.0    0.0    
0.0    0.0    0.0    0.0    0.0    
0.0    0.0    0.0    0.0    0.0    
0.0    0.0    0.0    0.0    0.0    
0.0    0.0    0.0    0.0    0.0    
0.0    0.0    0.0    0.0    0.0    
0.0    0.0    0.0    0.0    0.0    
0.0    0.0    0.0    0.0    0.0    
0.0    0.0    0.0    0.0    0.0    
0.0    0.0    0.0    0.0    0.0    
0.0    0.0    0.0    0.0    0.0    
0.0    0.0    0.0    0.0    0.0    
0.0    0.0    0.0    0.0    0.0    
0.0    0.0    0.0    0.0    0.0    
0.0    0.0    0.0    0.0    0.0    
0.0    0.0    0.0    0.0    0.0    
0.0    0.0    0.0    0.0    0.0    
0.0    0.0    0.0    0.0    0.0    
0.0    0.0    0.0    0.0    0.0    
0.0    0.0    0.0    0.0    0.0    
0.0    0.0    0.0    0.0    0.0    
0.0    0.0    0.0    0.0    0.0    
0.0    0.0    0.0    0.0    0.0    
0.0    0.0    0.0    0.0    0.0    
0.0    
46.3169310734    40.6584082764    48.7239160375    35.3919263561    42.7832664665    
30.4666931352    37.2500523756    25.8352017458    32.0721918038    27.2007107035    
55.1275752686    57.3106554033    50.6678912152    44.5006890628    38.7528248142    
33.3713109396    28.3060925659    80.7082186097    72.2654780971    82.9470554322    
64.4887072273    74.2990947907    66.3250118365    58.9584477611    52.1363043215    
45.7987737468    39.8892468724    34.3541345588    29.1426288878    84.4425926907    
75.6588336189    67.5537974877    60.0618194683    53.1201045475    46.6688547261    
40.6512543596    35.013351518    24.2064234949    29.703864882    19.4994072004    
24.6739382024    14.9773408289    19.8768588738    10.597523799    15.2677525157    
6.31845527511    10.8032621521    6.44121766058    76.339849296    68.1695250042    
60.6149280725    53.6134396505    47.1052862514    41.0335643071    35.3441522519    
29.9855408859    24.9086055339    20.0663375228    15.4135482103    10.9065546206    
2.1402996811    6.50285352284    2.16078829993    76.3398493137    68.1695250702    
60.614928142    53.6134397183    47.1052863092    41.0335643473    35.3441522604    
29.9855408832    24.9086055071    20.066337501    15.4135481906    10.9065546064    
6.50285351245    2.16078829586    75.6588337108    67.5537976989    60.0618196862    
53.1201047498    46.6688549041    40.6512544753    35.0133515664    29.7038648595    
24.6739381353    19.876858793    15.2677524548    10.8032621042    6.44121762757    
2.14029966739    74.2990950445    66.3250122087    58.9584481311    52.1363046663    
45.7987740493    39.8892470788    34.3541346554    29.1426288645    24.2064233969    
19.4994070915    14.977340735    10.597523731    6.31845522793    2.09949241418    
64.4887077354    57.3106559235    50.6678917175    44.5006895217    38.7528251349    
33.3713110998    28.306092568    23.5097195006    18.9370054528    14.5446796672    
10.2910368593    6.13558714101    2.03870717744    37.250052754    32.0721920569    
27.2007108111    22.5893565946    18.1942155633    13.9733356259    9.88635690114    
5.89414930403    1.95845633398    1.85942517642    
0.328125    0.296875    0.328125    0.265625    0.296875    
0.234375    0.265625    0.203125    0.234375    0.203125    
0.359375    0.359375    0.328125    0.296875    0.265625    
0.234375    0.203125    0.453125    0.421875    0.453125    
0.390625    0.421875    0.390625    0.359375    0.328125    
0.296875    0.265625    0.234375    0.203125    0.453125    
0.421875    0.390625    0.359375    0.328125    0.296875    
0.265625    0.234375    0.171875    0.203125    0.140625    
0.171875    0.109375    0.140625    0.078125    0.109375    
0.046875    0.078125    0.046875    0.421875    0.390625    
0.359375    0.328125    0.296875    0.265625    0.234375    
0.203125    0.171875    0.140625    0.109375    0.078125    
0.015625    0.046875    0.015625    0.421875    0.390625    
0.359375    0.328125    0.296875    0.265625    0.234375    
0.203125    0.171875    0.140625    0.109375    0.078125    
0.046875    0.015625    0.421875    0.390625    0.359375    
0.328125    0.296875    0.265625    0.234375    0.203125    
0.171875    0.140625    0.109375    0.078125    0.046875    
0.015625    0.421875    0.390625    0.359375    0.328125    
0.296875    0.265625    0.234375    0.203125    0.171875    
0.140625    0.109375    0.078125    0.046875    0.015625    
0.390625    0.359375    0.328125    0.296875    0.265625    
0.234375    0.203125    0.171875    0.140625    0.109375    
0.078125    0.046875    0.015625    0.265625    0.234375    
0.203125    0.171875    0.140625    0.109375    0.078125    
0.046875    0.015625    0.015625    
9     2     1     7     
2     9     10     3     
9     7     18     19     
3     10     11     4     
10     9     19     20     
4     11     12     5     
11     10     20     21     
5     12     13     6     
12     11     21     22     
13     12     22     23     
18     7     8     17     
18     17     27     28     
19     18     28     29     
20     19     29     30     
21     20     30     31     
22     21     31     32     
23     22     32     33     
25     15     14     24     
15     25     26     16     
25     24     39     40     
16     26     27     17     
26     25     40     41     
27     26     41     42     
28     27     42     43     
29     28     43     44     
30     29     44     45     
31     30     45     46     
32     31     46     47     
33     32     47     48     
40     39     55     56     
41     40     56     57     
42     41     57     58     
43     42     58     59     
44     43     59     60     
45     44     60     61     
46     45     61     62     
47     46     62     63     
33     48     49     34     
48     47     63     64     
34     49     50     35     
49     48     64     65     
35     50     51     36     
50     49     65     66     
36     51     52     37     
51     50     66     67     
37     52     53     38     
52     51     67     68     
53     52     68     69     
57     56     71     72     
58     57     72     73     
59     58     73     74     
60     59     74     75     
61     60     75     76     
62     61     76     77     
63     62     77     78     
64     63     78     79     
65     64     79     80     
66     65     80     81     
67     66     81     82     
68     67     82     83     
53     69     70     54     
69     68     83     84     
70     69     84     85     
72     71     86     87     
73     72     87     88     
74     73     88     89     
75     74     89     90     
76     75     90     91     
77     76     91     92     
78     77     92     93     
79     78     93     94     
80     79     94     95     
81     80     95     96     
82     81     96     97     
83     82     97     98     
84     83     98     99     
85     84     99     100     
87     86     101     102     
88     87     102     103     
89     88     103     104     
90     89     104     105     
91     90     105     106     
92     91     106     107     
93     92     107     108     
94     93     108     109     
95     94     109     110     
96     95     110     111     
97     96     111     112     
98     97     112     113     
99     98     113     114     
100     99     114     115     
102     101     116     117     
103     102     117     118     
104     103     118     119     
105     104     119     120     
106     105     120     121     
107     106     121     122     
108     107     122     123     
109     108     123     124     
110     109     124     125     
111     110     125     126     
112     111     126     127     
113     112     127     128     
114     113     128     129     
115     114     129     130     
118     117     131     132     
119     118     132     133     
120     119     133     134     
121     120     134     135     
122     121     135     136     
123     122     136     137     
124     123     137     138     
125     124     138     139     
126     125     139     140     
127     126     140     141     
128     127     141     142     
129     128     142     143     
130     129     143     144     
136     135     145     146     
137     136     146     147     
138     137     147     148     
139     138     148     149     
140     139     149     150     
141     140     150     151     
142     141     151     152     
143     142     152     153     
144     143     153     154     
154     153     155     156     

