Title = " tecplot file for 2D Cavity problem " 
variables = "x", "y", "z", "velX", "cellCentroidY" 
Zone T = "nmesh0" N = 153 E = 128 DATAPACKING = BLOCK, VARLOCATION = ([4-5]=CELLCENTERED), ZONETYPE=FEQUADRILATERAL
0.5    0.5    0.5    0.5    0.5    
0.5    0.5    0.5    0.5    0.46875    
0.46875    0.46875    0.46875    0.46875    0.46875    
0.46875    0.46875    0.46875    0.4375    0.4375    
0.4375    0.4375    0.4375    0.4375    0.4375    
0.4375    0.4375    0.40625    0.40625    0.40625    
0.40625    0.40625    0.40625    0.40625    0.40625    
0.40625    0.375    0.375    0.375    0.375    
0.375    0.375    0.375    0.375    0.375    
0.34375    0.34375    0.34375    0.34375    0.34375    
0.34375    0.34375    0.34375    0.34375    0.3125    
0.3125    0.3125    0.3125    0.3125    0.3125    
0.3125    0.3125    0.3125    0.28125    0.28125    
0.28125    0.28125    0.28125    0.28125    0.28125    
0.28125    0.28125    0.25    0.25    0.25    
0.25    0.25    0.25    0.25    0.25    
0.25    0.21875    0.21875    0.21875    0.21875    
0.21875    0.21875    0.21875    0.21875    0.21875    
0.1875    0.1875    0.1875    0.1875    0.1875    
0.1875    0.1875    0.1875    0.1875    0.15625    
0.15625    0.15625    0.15625    0.15625    0.15625    
0.15625    0.15625    0.15625    0.125    0.125    
0.125    0.125    0.125    0.125    0.125    
0.125    0.125    0.09375    0.09375    0.09375    
0.09375    0.09375    0.09375    0.09375    0.09375    
0.09375    0.0625    0.0625    0.0625    0.0625    
0.0625    0.0625    0.0625    0.0625    0.0625    
0.03125    0.03125    0.03125    0.03125    0.03125    
0.03125    0.03125    0.03125    0.03125    0.0    
0.0    0.0    0.0    0.0    0.0    
0.0    0.0    0.0    
0.75    0.71875    0.6875    0.65625    0.625    
0.59375    0.5625    0.53125    0.5    0.75    
0.71875    0.6875    0.65625    0.625    0.59375    
0.5625    0.53125    0.5    0.75    0.71875    
0.6875    0.65625    0.625    0.59375    0.5625    
0.53125    0.5    0.75    0.71875    0.6875    
0.65625    0.625    0.59375    0.5625    0.53125    
0.5    0.75    0.71875    0.6875    0.65625    
0.625    0.59375    0.5625    0.53125    0.5    
0.75    0.71875    0.6875    0.65625    0.625    
0.59375    0.5625    0.53125    0.5    0.75    
0.71875    0.6875    0.65625    0.625    0.59375    
0.5625    0.53125    0.5    0.75    0.71875    
0.6875    0.65625    0.625    0.59375    0.5625    
0.53125    0.5    0.75    0.71875    0.6875    
0.65625    0.625    0.59375    0.5625    0.53125    
0.5    0.75    0.71875    0.6875    0.65625    
0.625    0.59375    0.5625    0.53125    0.5    
0.75    0.71875    0.6875    0.65625    0.625    
0.59375    0.5625    0.53125    0.5    0.75    
0.71875    0.6875    0.65625    0.625    0.59375    
0.5625    0.53125    0.5    0.75    0.71875    
0.6875    0.65625    0.625    0.59375    0.5625    
0.53125    0.5    0.75    0.71875    0.6875    
0.65625    0.625    0.59375    0.5625    0.53125    
0.5    0.75    0.71875    0.6875    0.65625    
0.625    0.59375    0.5625    0.53125    0.5    
0.75    0.71875    0.6875    0.65625    0.625    
0.59375    0.5625    0.53125    0.5    0.75    
0.71875    0.6875    0.65625    0.625    0.59375    
0.5625    0.53125    0.5    
0.0    0.0    0.0    0.0    0.0    
0.0    0.0    0.0    0.0    0.0    
0.0    0.0    0.0    0.0    0.0    
0.0    0.0    0.0    0.0    0.0    
0.0    0.0    0.0    0.0    0.0    
0.0    0.0    0.0    0.0    0.0    
0.0    0.0    0.0    0.0    0.0    
0.0    0.0    0.0    0.0    0.0    
0.0    0.0    0.0    0.0    0.0    
0.0    0.0    0.0    0.0    0.0    
0.0    0.0    0.0    0.0    0.0    
0.0    0.0    0.0    0.0    0.0    
0.0    0.0    0.0    0.0    0.0    
0.0    0.0    0.0    0.0    0.0    
0.0    0.0    0.0    0.0    0.0    
0.0    0.0    0.0    0.0    0.0    
0.0    0.0    0.0    0.0    0.0    
0.0    0.0    0.0    0.0    0.0    
0.0    0.0    0.0    0.0    0.0    
0.0    0.0    0.0    0.0    0.0    
0.0    0.0    0.0    0.0    0.0    
0.0    0.0    0.0    0.0    0.0    
0.0    0.0    0.0    0.0    0.0    
0.0    0.0    0.0    0.0    0.0    
0.0    0.0    0.0    0.0    0.0    
0.0    0.0    0.0    0.0    0.0    
0.0    0.0    0.0    0.0    0.0    
0.0    0.0    0.0    0.0    0.0    
0.0    0.0    0.0    0.0    0.0    
0.0    0.0    0.0    0.0    0.0    
0.0    0.0    0.0    
206.53430463    188.63650171    171.945191217    156.434674182    142.06312771    
128.776936766    116.51441852    105.208893594    205.323029096    187.430009102    
170.764397592    155.295703423    140.977771955    127.753263814    115.557424918    
104.321136216    202.874592402    184.99610777    168.386686498    153.005969823    
138.798992727    125.700921464    113.640880967    102.544933434    199.136955087    
181.293142965    164.780270776    149.542496614    135.511307635    122.61054832    
110.760244029    99.8794010726    194.031551095    176.259238107    159.898756998    
144.872438184    131.093192839    118.469720116    106.910145731    96.3244474938    
187.453184574    169.813501264    153.68308089    138.955306257    125.519305389    
113.264993546    102.086171265    91.8822617243    179.270866101    161.858501378    
146.064759027    131.74640054    118.763728892    106.984777391    96.2872840437    
86.5592915281    169.33069073    152.284879036    136.97105327    123.201807962    
110.804432228    99.6231030637    89.5188959759    80.3686726393    157.46245242    
140.979270673    126.332767049    113.285345793    101.629088974    91.1843066424    
81.7965241447    73.3330194627    143.492403013    127.836984122    114.095398431    
101.977719171    91.2422712168    81.6885103704    73.1498744845    65.4874129947    
127.265191371    112.780864295    100.234123382    89.2878612281    79.6737663368    
71.1775891229    63.6270504158    56.8823262338    108.678016037    95.7871582583    
84.7723695505    75.2658360102    66.9873437668    59.7210293562    53.2984118126    
47.586125716    87.7283104458    76.9173830923    67.802360554    60.0157694869    
53.2887433548    47.4207727137    42.259441756    37.6867056739    64.5712362536    
56.3517030878    49.5039200706    43.7061380238    38.7310874465    34.4138763829    
30.6318768209    27.2917847504    39.5735479492    34.414272903    30.1554786298    
26.5737750981    23.5155920313    20.8717685574    18.5624044004    16.5274707013    
13.3375904161    11.5763619556    10.1299464601    8.91789171799    7.88573703443    
6.99520142482    6.21850153494    5.53490185239    
0.734375    0.703125    0.671875    0.640625    0.609375    
0.578125    0.546875    0.515625    0.734375    0.703125    
0.671875    0.640625    0.609375    0.578125    0.546875    
0.515625    0.734375    0.703125    0.671875    0.640625    
0.609375    0.578125    0.546875    0.515625    0.734375    
0.703125    0.671875    0.640625    0.609375    0.578125    
0.546875    0.515625    0.734375    0.703125    0.671875    
0.640625    0.609375    0.578125    0.546875    0.515625    
0.734375    0.703125    0.671875    0.640625    0.609375    
0.578125    0.546875    0.515625    0.734375    0.703125    
0.671875    0.640625    0.609375    0.578125    0.546875    
0.515625    0.734375    0.703125    0.671875    0.640625    
0.609375    0.578125    0.546875    0.515625    0.734375    
0.703125    0.671875    0.640625    0.609375    0.578125    
0.546875    0.515625    0.734375    0.703125    0.671875    
0.640625    0.609375    0.578125    0.546875    0.515625    
0.734375    0.703125    0.671875    0.640625    0.609375    
0.578125    0.546875    0.515625    0.734375    0.703125    
0.671875    0.640625    0.609375    0.578125    0.546875    
0.515625    0.734375    0.703125    0.671875    0.640625    
0.609375    0.578125    0.546875    0.515625    0.734375    
0.703125    0.671875    0.640625    0.609375    0.578125    
0.546875    0.515625    0.734375    0.703125    0.671875    
0.640625    0.609375    0.578125    0.546875    0.515625    
0.734375    0.703125    0.671875    0.640625    0.609375    
0.578125    0.546875    0.515625    
11     2     1     10     
2     11     12     3     
3     12     13     4     
4     13     14     5     
5     14     15     6     
6     15     16     7     
7     16     17     8     
8     17     18     9     
11     10     19     20     
12     11     20     21     
13     12     21     22     
14     13     22     23     
15     14     23     24     
16     15     24     25     
17     16     25     26     
18     17     26     27     
20     19     28     29     
21     20     29     30     
22     21     30     31     
23     22     31     32     
24     23     32     33     
25     24     33     34     
26     25     34     35     
27     26     35     36     
29     28     37     38     
30     29     38     39     
31     30     39     40     
32     31     40     41     
33     32     41     42     
34     33     42     43     
35     34     43     44     
36     35     44     45     
38     37     46     47     
39     38     47     48     
40     39     48     49     
41     40     49     50     
42     41     50     51     
43     42     51     52     
44     43     52     53     
45     44     53     54     
47     46     55     56     
48     47     56     57     
49     48     57     58     
50     49     58     59     
51     50     59     60     
52     51     60     61     
53     52     61     62     
54     53     62     63     
56     55     64     65     
57     56     65     66     
58     57     66     67     
59     58     67     68     
60     59     68     69     
61     60     69     70     
62     61     70     71     
63     62     71     72     
65     64     73     74     
66     65     74     75     
67     66     75     76     
68     67     76     77     
69     68     77     78     
70     69     78     79     
71     70     79     80     
72     71     80     81     
74     73     82     83     
75     74     83     84     
76     75     84     85     
77     76     85     86     
78     77     86     87     
79     78     87     88     
80     79     88     89     
81     80     89     90     
83     82     91     92     
84     83     92     93     
85     84     93     94     
86     85     94     95     
87     86     95     96     
88     87     96     97     
89     88     97     98     
90     89     98     99     
92     91     100     101     
93     92     101     102     
94     93     102     103     
95     94     103     104     
96     95     104     105     
97     96     105     106     
98     97     106     107     
99     98     107     108     
101     100     109     110     
102     101     110     111     
103     102     111     112     
104     103     112     113     
105     104     113     114     
106     105     114     115     
107     106     115     116     
108     107     116     117     
110     109     118     119     
111     110     119     120     
112     111     120     121     
113     112     121     122     
114     113     122     123     
115     114     123     124     
116     115     124     125     
117     116     125     126     
119     118     127     128     
120     119     128     129     
121     120     129     130     
122     121     130     131     
123     122     131     132     
124     123     132     133     
125     124     133     134     
126     125     134     135     
128     127     136     137     
129     128     137     138     
130     129     138     139     
131     130     139     140     
132     131     140     141     
133     132     141     142     
134     133     142     143     
135     134     143     144     
137     136     145     146     
138     137     146     147     
139     138     147     148     
140     139     148     149     
141     140     149     150     
142     141     150     151     
143     142     151     152     
144     143     152     153     

