Title = " tecplot file for 2D Cavity problem " 
variables = "x", "y", "z", "velX", "cellCentroidY" 
Zone T = "nmesh0" N = 153 E = 128 DATAPACKING = BLOCK, VARLOCATION = ([4-5]=CELLCENTERED), ZONETYPE=FEQUADRILATERAL
0.25    0.25    0.25    0.25    0.25    
0.25    0.25    0.25    0.25    0.25    
0.25    0.25    0.25    0.25    0.25    
0.25    0.25    0.21875    0.21875    0.21875    
0.21875    0.21875    0.21875    0.21875    0.21875    
0.21875    0.21875    0.21875    0.21875    0.21875    
0.21875    0.21875    0.21875    0.21875    0.1875    
0.1875    0.1875    0.1875    0.1875    0.1875    
0.1875    0.1875    0.1875    0.1875    0.1875    
0.1875    0.1875    0.1875    0.1875    0.1875    
0.1875    0.15625    0.15625    0.15625    0.15625    
0.15625    0.15625    0.15625    0.15625    0.15625    
0.15625    0.15625    0.15625    0.15625    0.15625    
0.15625    0.15625    0.15625    0.125    0.125    
0.125    0.125    0.125    0.125    0.125    
0.125    0.125    0.125    0.125    0.125    
0.125    0.125    0.125    0.125    0.125    
0.09375    0.09375    0.09375    0.09375    0.09375    
0.09375    0.09375    0.09375    0.09375    0.09375    
0.09375    0.09375    0.09375    0.09375    0.09375    
0.09375    0.09375    0.0625    0.0625    0.0625    
0.0625    0.0625    0.0625    0.0625    0.0625    
0.0625    0.0625    0.0625    0.0625    0.0625    
0.0625    0.0625    0.0625    0.0625    0.03125    
0.03125    0.03125    0.03125    0.03125    0.03125    
0.03125    0.03125    0.03125    0.03125    0.03125    
0.03125    0.03125    0.03125    0.03125    0.03125    
0.03125    0.0    0.0    0.0    0.0    
0.0    0.0    0.0    0.0    0.0    
0.0    0.0    0.0    0.0    0.0    
0.0    0.0    0.0    
0.5    0.46875    0.4375    0.40625    0.375    
0.34375    0.3125    0.28125    0.25    0.21875    
0.1875    0.15625    0.125    0.09375    0.0625    
0.03125    0.0    0.5    0.46875    0.4375    
0.40625    0.375    0.34375    0.3125    0.28125    
0.25    0.21875    0.1875    0.15625    0.125    
0.09375    0.0625    0.03125    0.0    0.5    
0.46875    0.4375    0.40625    0.375    0.34375    
0.3125    0.28125    0.25    0.21875    0.1875    
0.15625    0.125    0.09375    0.0625    0.03125    
0.0    0.5    0.46875    0.4375    0.40625    
0.375    0.34375    0.3125    0.28125    0.25    
0.21875    0.1875    0.15625    0.125    0.09375    
0.0625    0.03125    0.0    0.5    0.46875    
0.4375    0.40625    0.375    0.34375    0.3125    
0.28125    0.25    0.21875    0.1875    0.15625    
0.125    0.09375    0.0625    0.03125    0.0    
0.5    0.46875    0.4375    0.40625    0.375    
0.34375    0.3125    0.28125    0.25    0.21875    
0.1875    0.15625    0.125    0.09375    0.0625    
0.03125    0.0    0.5    0.46875    0.4375    
0.40625    0.375    0.34375    0.3125    0.28125    
0.25    0.21875    0.1875    0.15625    0.125    
0.09375    0.0625    0.03125    0.0    0.5    
0.46875    0.4375    0.40625    0.375    0.34375    
0.3125    0.28125    0.25    0.21875    0.1875    
0.15625    0.125    0.09375    0.0625    0.03125    
0.0    0.5    0.46875    0.4375    0.40625    
0.375    0.34375    0.3125    0.28125    0.25    
0.21875    0.1875    0.15625    0.125    0.09375    
0.0625    0.03125    0.0    
0.0    0.0    0.0    0.0    0.0    
0.0    0.0    0.0    0.0    0.0    
0.0    0.0    0.0    0.0    0.0    
0.0    0.0    0.0    0.0    0.0    
0.0    0.0    0.0    0.0    0.0    
0.0    0.0    0.0    0.0    0.0    
0.0    0.0    0.0    0.0    0.0    
0.0    0.0    0.0    0.0    0.0    
0.0    0.0    0.0    0.0    0.0    
0.0    0.0    0.0    0.0    0.0    
0.0    0.0    0.0    0.0    0.0    
0.0    0.0    0.0    0.0    0.0    
0.0    0.0    0.0    0.0    0.0    
0.0    0.0    0.0    0.0    0.0    
0.0    0.0    0.0    0.0    0.0    
0.0    0.0    0.0    0.0    0.0    
0.0    0.0    0.0    0.0    0.0    
0.0    0.0    0.0    0.0    0.0    
0.0    0.0    0.0    0.0    0.0    
0.0    0.0    0.0    0.0    0.0    
0.0    0.0    0.0    0.0    0.0    
0.0    0.0    0.0    0.0    0.0    
0.0    0.0    0.0    0.0    0.0    
0.0    0.0    0.0    0.0    0.0    
0.0    0.0    0.0    0.0    0.0    
0.0    0.0    0.0    0.0    0.0    
0.0    0.0    0.0    0.0    0.0    
0.0    0.0    0.0    0.0    0.0    
0.0    0.0    0.0    0.0    0.0    
0.0    0.0    0.0    0.0    0.0    
0.0    0.0    0.0    
65.679468292    58.7369368755    58.5844321168    52.4193030872    52.3421303309    
46.6510872938    46.6761062445    41.3656559007    41.5135789951    36.5037389848    
36.7911865174    32.012206799    32.4532364066    27.8430558457    28.4503093827    
23.9525623283    24.7381356946    20.30056833    21.2766819711    16.8498723954    
18.0293999771    13.5657019102    14.9625997308    10.4152488832    12.0449178915    
7.36725449574    9.24685881529    4.39163023751    6.54039052115    1.45910568648    
3.89858146688    1.29526663674    50.8287160473    45.3710458625    40.4294124231    
35.9359357861    31.8322746393    28.067710627    24.5976585237    21.382495485    
18.3866297981    15.5777498042    12.9262085949    10.4045110609    7.98687792582    
5.64886728585    3.36703846594    1.11864602678    42.4770593723    37.8839245581    
33.7345617769    29.9684770611    26.5342656064    23.3876729212    20.4901185851    
17.8075579106    15.3095919211    12.968760837    10.7599737758    8.66003982573    
6.64727453769    4.70116223665    2.80205908715    0.930925032708    33.6094706465    
29.9530311423    26.6564330436    23.6691450509    20.9486377846    18.4585968499    
16.1675849706    14.0480256385    12.0754191279    10.227727838    8.48488583854    
6.82839992319    5.24101815981    3.70644803882    2.20911061927    0.733920050305    
24.321085973    21.6622962583    19.2689941862    17.1030322955    15.132543616    
13.33049171    11.6735987977    10.1415405352    8.71633110585    7.38184554168    
6.12344181212    4.92765586532    3.78195013793    2.67450114439    1.59401530272    
0.52956460174    14.7207919063    13.1060736864    11.6542151349    10.3414463159    
9.14801266391    8.05722756796    7.05477796758    6.12820659228    5.26651921342    
4.45988140658    3.69937999978    2.97683158589    2.28462538144    1.61559110038    
0.962884850506    0.319887656535    4.92853705163    4.38699141807    3.90034634351    
3.46052516243    3.06083315062    2.69562792575    2.36007890871    2.04998864971    
1.76165774651    1.49178086938    1.23736519302    0.99566509613    0.764128701191    
0.540353028743    0.322045342238    0.106988832999    
0.484375    0.453125    0.484375    0.421875    0.453125    
0.390625    0.421875    0.359375    0.390625    0.328125    
0.359375    0.296875    0.328125    0.265625    0.296875    
0.234375    0.265625    0.203125    0.234375    0.171875    
0.203125    0.140625    0.171875    0.109375    0.140625    
0.078125    0.109375    0.046875    0.078125    0.015625    
0.046875    0.015625    0.484375    0.453125    0.421875    
0.390625    0.359375    0.328125    0.296875    0.265625    
0.234375    0.203125    0.171875    0.140625    0.109375    
0.078125    0.046875    0.015625    0.484375    0.453125    
0.421875    0.390625    0.359375    0.328125    0.296875    
0.265625    0.234375    0.203125    0.171875    0.140625    
0.109375    0.078125    0.046875    0.015625    0.484375    
0.453125    0.421875    0.390625    0.359375    0.328125    
0.296875    0.265625    0.234375    0.203125    0.171875    
0.140625    0.109375    0.078125    0.046875    0.015625    
0.484375    0.453125    0.421875    0.390625    0.359375    
0.328125    0.296875    0.265625    0.234375    0.203125    
0.171875    0.140625    0.109375    0.078125    0.046875    
0.015625    0.484375    0.453125    0.421875    0.390625    
0.359375    0.328125    0.296875    0.265625    0.234375    
0.203125    0.171875    0.140625    0.109375    0.078125    
0.046875    0.015625    0.484375    0.453125    0.421875    
0.390625    0.359375    0.328125    0.296875    0.265625    
0.234375    0.203125    0.171875    0.140625    0.109375    
0.078125    0.046875    0.015625    
19     2     1     18     
2     19     20     3     
19     18     35     36     
3     20     21     4     
20     19     36     37     
4     21     22     5     
21     20     37     38     
5     22     23     6     
22     21     38     39     
6     23     24     7     
23     22     39     40     
7     24     25     8     
24     23     40     41     
8     25     26     9     
25     24     41     42     
9     26     27     10     
26     25     42     43     
10     27     28     11     
27     26     43     44     
11     28     29     12     
28     27     44     45     
12     29     30     13     
29     28     45     46     
13     30     31     14     
30     29     46     47     
14     31     32     15     
31     30     47     48     
15     32     33     16     
32     31     48     49     
16     33     34     17     
33     32     49     50     
34     33     50     51     
36     35     52     53     
37     36     53     54     
38     37     54     55     
39     38     55     56     
40     39     56     57     
41     40     57     58     
42     41     58     59     
43     42     59     60     
44     43     60     61     
45     44     61     62     
46     45     62     63     
47     46     63     64     
48     47     64     65     
49     48     65     66     
50     49     66     67     
51     50     67     68     
53     52     69     70     
54     53     70     71     
55     54     71     72     
56     55     72     73     
57     56     73     74     
58     57     74     75     
59     58     75     76     
60     59     76     77     
61     60     77     78     
62     61     78     79     
63     62     79     80     
64     63     80     81     
65     64     81     82     
66     65     82     83     
67     66     83     84     
68     67     84     85     
70     69     86     87     
71     70     87     88     
72     71     88     89     
73     72     89     90     
74     73     90     91     
75     74     91     92     
76     75     92     93     
77     76     93     94     
78     77     94     95     
79     78     95     96     
80     79     96     97     
81     80     97     98     
82     81     98     99     
83     82     99     100     
84     83     100     101     
85     84     101     102     
87     86     103     104     
88     87     104     105     
89     88     105     106     
90     89     106     107     
91     90     107     108     
92     91     108     109     
93     92     109     110     
94     93     110     111     
95     94     111     112     
96     95     112     113     
97     96     113     114     
98     97     114     115     
99     98     115     116     
100     99     116     117     
101     100     117     118     
102     101     118     119     
104     103     120     121     
105     104     121     122     
106     105     122     123     
107     106     123     124     
108     107     124     125     
109     108     125     126     
110     109     126     127     
111     110     127     128     
112     111     128     129     
113     112     129     130     
114     113     130     131     
115     114     131     132     
116     115     132     133     
117     116     133     134     
118     117     134     135     
119     118     135     136     
121     120     137     138     
122     121     138     139     
123     122     139     140     
124     123     140     141     
125     124     141     142     
126     125     142     143     
127     126     143     144     
128     127     144     145     
129     128     145     146     
130     129     146     147     
131     130     147     148     
132     131     148     149     
133     132     149     150     
134     133     150     151     
135     134     151     152     
136     135     152     153     

