Title = " tecplot file for 2D Cavity problem " 
variables = "x", "y", "z", "velX", "cellCentroidY" 
Zone T = "nmesh0" N = 155 E = 128 DATAPACKING = BLOCK, VARLOCATION = ([4-5]=CELLCENTERED),  ZONETYPE=FEQUADRILATERAL 
0.3125    0.3125    0.3125    0.3125    0.3125    
0.3125    0.3125    0.3125    0.28125    0.28125    
0.28125    0.28125    0.28125    0.28125    0.28125    
0.28125    0.28125    0.25    0.25    0.25    
0.25    0.25    0.25    0.25    0.25    
0.25    0.25    0.25    0.25    0.25    
0.25    0.25    0.25    0.25    0.21875    
0.21875    0.21875    0.21875    0.21875    0.21875    
0.21875    0.21875    0.21875    0.21875    0.21875    
0.21875    0.21875    0.21875    0.21875    0.21875    
0.1875    0.1875    0.1875    0.1875    0.1875    
0.1875    0.1875    0.1875    0.1875    0.1875    
0.1875    0.1875    0.1875    0.1875    0.1875    
0.1875    0.15625    0.15625    0.15625    0.15625    
0.15625    0.15625    0.15625    0.15625    0.15625    
0.15625    0.15625    0.15625    0.15625    0.15625    
0.15625    0.125    0.125    0.125    0.125    
0.125    0.125    0.125    0.125    0.125    
0.125    0.125    0.125    0.125    0.125    
0.125    0.09375    0.09375    0.09375    0.09375    
0.09375    0.09375    0.09375    0.09375    0.09375    
0.09375    0.09375    0.09375    0.09375    0.09375    
0.09375    0.0625    0.0625    0.0625    0.0625    
0.0625    0.0625    0.0625    0.0625    0.0625    
0.0625    0.0625    0.0625    0.0625    0.0625    
0.0625    0.03125    0.03125    0.03125    0.03125    
0.03125    0.03125    0.03125    0.03125    0.03125    
0.03125    0.03125    0.03125    0.03125    0.03125    
0.03125    0.0    0.0    0.0    0.0    
0.0    0.0    0.0    0.0    0.0    
0.0    0.0    0.0    0.0    0.0    

0.71875    0.6875    0.65625    0.625    0.59375    
0.5625    0.53125    0.5    0.71875    0.75    
0.6875    0.65625    0.625    0.59375    0.5625    
0.53125    0.5    1.0    0.96875    0.9375    
0.90625    0.875    0.84375    0.8125    0.78125    
0.75    0.71875    0.6875    0.65625    0.625    
0.59375    0.5625    0.53125    0.5    0.96875    
1.0    0.9375    0.90625    0.875    0.84375    
0.8125    0.78125    0.75    0.71875    0.6875    
0.65625    0.625    0.59375    0.5625    0.53125    
0.96875    1.0    0.9375    0.90625    0.875    
0.84375    0.8125    0.78125    0.75    0.71875    
0.6875    0.65625    0.625    0.59375    0.5625    
0.53125    0.96875    1.0    0.9375    0.90625    
0.875    0.84375    0.8125    0.78125    0.75    
0.71875    0.6875    0.65625    0.625    0.59375    
0.5625    0.96875    1.0    0.9375    0.90625    
0.875    0.84375    0.8125    0.78125    0.75    
0.71875    0.6875    0.65625    0.625    0.59375    
0.5625    0.96875    1.0    0.9375    0.90625    
0.875    0.84375    0.8125    0.78125    0.75    
0.71875    0.6875    0.65625    0.625    0.59375    
0.5625    0.96875    1.0    0.9375    0.90625    
0.875    0.84375    0.8125    0.78125    0.75    
0.71875    0.6875    0.65625    0.625    0.59375    
0.5625    0.96875    1.0    0.9375    0.90625    
0.875    0.84375    0.8125    0.78125    0.75    
0.71875    0.6875    0.65625    0.625    0.59375    
0.5625    0.96875    0.9375    0.90625    0.875    
0.84375    0.8125    0.78125    0.75    0.71875    
0.6875    0.65625    0.625    0.59375    1.0    

0.0    0.0    0.0    0.0    0.0    
0.0    0.0    0.0    0.0    0.0    
0.0    0.0    0.0    0.0    0.0    
0.0    0.0    0.0    0.0    0.0    
0.0    0.0    0.0    0.0    0.0    
0.0    0.0    0.0    0.0    0.0    
0.0    0.0    0.0    0.0    0.0    
0.0    0.0    0.0    0.0    0.0    
0.0    0.0    0.0    0.0    0.0    
0.0    0.0    0.0    0.0    0.0    
0.0    0.0    0.0    0.0    0.0    
0.0    0.0    0.0    0.0    0.0    
0.0    0.0    0.0    0.0    0.0    
0.0    0.0    0.0    0.0    0.0    
0.0    0.0    0.0    0.0    0.0    
0.0    0.0    0.0    0.0    0.0    
0.0    0.0    0.0    0.0    0.0    
0.0    0.0    0.0    0.0    0.0    
0.0    0.0    0.0    0.0    0.0    
0.0    0.0    0.0    0.0    0.0    
0.0    0.0    0.0    0.0    0.0    
0.0    0.0    0.0    0.0    0.0    
0.0    0.0    0.0    0.0    0.0    
0.0    0.0    0.0    0.0    0.0    
0.0    0.0    0.0    0.0    0.0    
0.0    0.0    0.0    0.0    0.0    
0.0    0.0    0.0    0.0    0.0    
0.0    0.0    0.0    0.0    0.0    
0.0    0.0    0.0    0.0    0.0    
0.0    0.0    0.0    0.0    0.0    
0.0    0.0    0.0    0.0    0.0    

161.858502055    146.064759888    152.284879616    131.746401459    136.971054004    
118.763729825    123.201808794    106.984778281    110.804433099    96.2872848365    
99.6231039288    86.5592921491    89.5188967751    80.3686732867    169.330691162    
157.462452751    140.979271112    126.33276763    113.285346476    101.629089721    
91.184307413    81.7965248862    381.241195433    344.370761453    378.831425178    
309.285036085    337.500144693    276.762732889    298.841169362    247.193311483    
263.830092318    220.654027084    232.794817983    197.017779002    205.623311675    
176.0474454    181.970605924    161.404984178    143.492403221    127.836984442    
114.095398892    101.977719733    91.2422718556    81.6885110493    73.1498751701    
375.415785762    327.957222767    284.749404332    246.921649005    214.532556417    
187.073795648    163.836348795    144.109482126    127.265191499    112.78086453    
100.234123737    89.287861687    79.6737668764    71.1775897338    370.290280863    
314.163556279    265.27757619    224.574542947    191.339963024    164.3029657    
142.19151148    123.931404019    108.678016111    95.7871584242    84.7723698294    
75.2658363797    66.9873442138    59.7210298731    361.872062275    293.129145295    
237.622801197    194.758983566    161.949787027    136.60659264    116.695327398    
100.74660635    87.728310491    76.917383215    67.8023607645    60.0157697765    
53.288743711    47.4207731287    345.940885216    258.858161428    197.325499734    
154.888803089    125.093608872    103.478290428    87.2365991175    74.6313834863    
64.5712362792    56.3517031718    49.5039202279    43.7061382402    38.7310877149    
34.4138766954    308.974202377    199.037115465    137.932233221    102.377120179    
80.0575549425    64.9763610781    54.1413951526    45.9710921924    39.5735479634    
34.4142729603    30.1554787301    26.5737752358    23.5155922037    20.8717687585    
199.893011202    90.3838648342    52.989197504    36.6298894645    27.7831296389    
22.2282037875    18.3815282212    15.5380421666    13.3375904209    11.576361975    
10.1299464938    8.91789176521    7.88573709408    
0.703125    0.671875    0.703125    0.640625    0.671875    
0.609375    0.640625    0.578125    0.609375    0.546875    
0.578125    0.515625    0.546875    0.515625    0.734375    
0.734375    0.703125    0.671875    0.640625    0.609375    
0.578125    0.546875    0.984375    0.953125    0.984375    
0.921875    0.953125    0.890625    0.921875    0.859375    
0.890625    0.828125    0.859375    0.796875    0.828125    
0.765625    0.796875    0.765625    0.734375    0.703125    
0.671875    0.640625    0.609375    0.578125    0.546875    
0.984375    0.953125    0.921875    0.890625    0.859375    
0.828125    0.796875    0.765625    0.734375    0.703125    
0.671875    0.640625    0.609375    0.578125    0.984375    
0.953125    0.921875    0.890625    0.859375    0.828125    
0.796875    0.765625    0.734375    0.703125    0.671875    
0.640625    0.609375    0.578125    0.984375    0.953125    
0.921875    0.890625    0.859375    0.828125    0.796875    
0.765625    0.734375    0.703125    0.671875    0.640625    
0.609375    0.578125    0.984375    0.953125    0.921875    
0.890625    0.859375    0.828125    0.796875    0.765625    
0.734375    0.703125    0.671875    0.640625    0.609375    
0.578125    0.984375    0.953125    0.921875    0.890625    
0.859375    0.828125    0.796875    0.765625    0.734375    
0.703125    0.671875    0.640625    0.609375    0.578125    
0.984375    0.953125    0.921875    0.890625    0.859375    
0.828125    0.796875    0.765625    0.734375    0.703125    
0.671875    0.640625    0.609375    
11     2     1     9     
2     11     12     3     
11     9     27     28     
3     12     13     4     
12     11     28     29     
4     13     14     5     
13     12     29     30     
5     14     15     6     
14     13     30     31     
6     15     16     7     
15     14     31     32     
7     16     17     8     
16     15     32     33     
17     16     33     34     
27     9     10     26     
27     26     43     44     
28     27     44     45     
29     28     45     46     
30     29     46     47     
31     30     47     48     
32     31     48     49     
33     32     49     50     
35     19     18     36     
19     35     37     20     
35     36     52     51     
20     37     38     21     
37     35     51     53     
21     38     39     22     
38     37     53     54     
22     39     40     23     
39     38     54     55     
23     40     41     24     
40     39     55     56     
24     41     42     25     
41     40     56     57     
25     42     43     26     
42     41     57     58     
43     42     58     59     
44     43     59     60     
45     44     60     61     
46     45     61     62     
47     46     62     63     
48     47     63     64     
49     48     64     65     
50     49     65     66     
51     52     68     67     
53     51     67     69     
54     53     69     70     
55     54     70     71     
56     55     71     72     
57     56     72     73     
58     57     73     74     
59     58     74     75     
60     59     75     76     
61     60     76     77     
62     61     77     78     
63     62     78     79     
64     63     79     80     
65     64     80     81     
67     68     83     82     
69     67     82     84     
70     69     84     85     
71     70     85     86     
72     71     86     87     
73     72     87     88     
74     73     88     89     
75     74     89     90     
76     75     90     91     
77     76     91     92     
78     77     92     93     
79     78     93     94     
80     79     94     95     
81     80     95     96     
82     83     98     97     
84     82     97     99     
85     84     99     100     
86     85     100     101     
87     86     101     102     
88     87     102     103     
89     88     103     104     
90     89     104     105     
91     90     105     106     
92     91     106     107     
93     92     107     108     
94     93     108     109     
95     94     109     110     
96     95     110     111     
97     98     113     112     
99     97     112     114     
100     99     114     115     
101     100     115     116     
102     101     116     117     
103     102     117     118     
104     103     118     119     
105     104     119     120     
106     105     120     121     
107     106     121     122     
108     107     122     123     
109     108     123     124     
110     109     124     125     
111     110     125     126     
112     113     128     127     
114     112     127     129     
115     114     129     130     
116     115     130     131     
117     116     131     132     
118     117     132     133     
119     118     133     134     
120     119     134     135     
121     120     135     136     
122     121     136     137     
123     122     137     138     
124     123     138     139     
125     124     139     140     
126     125     140     141     
127     128     155     142     
129     127     142     143     
130     129     143     144     
131     130     144     145     
132     131     145     146     
133     132     146     147     
134     133     147     148     
135     134     148     149     
136     135     149     150     
137     136     150     151     
138     137     151     152     
139     138     152     153     
140     139     153     154     

