Title = " tecplot file for 2D Cavity problem " 
variables = "x", "y", "z", "velX", "cellCentroidY" 
Zone T = "nmesh0" N = 153 E = 128 DATAPACKING = BLOCK, VARLOCATION = ([4-5]=CELLCENTERED), ZONETYPE=FEQUADRILATERAL
0.5    0.5    0.5    0.5    0.5    
0.5    0.5    0.5    0.5    0.46875    
0.46875    0.46875    0.46875    0.46875    0.46875    
0.46875    0.46875    0.46875    0.4375    0.4375    
0.4375    0.4375    0.4375    0.4375    0.4375    
0.4375    0.4375    0.40625    0.40625    0.40625    
0.40625    0.40625    0.40625    0.40625    0.40625    
0.40625    0.375    0.375    0.375    0.375    
0.375    0.375    0.375    0.375    0.375    
0.34375    0.34375    0.34375    0.34375    0.34375    
0.34375    0.34375    0.34375    0.34375    0.3125    
0.3125    0.3125    0.3125    0.3125    0.3125    
0.3125    0.3125    0.3125    0.28125    0.28125    
0.28125    0.28125    0.28125    0.28125    0.28125    
0.28125    0.28125    0.25    0.25    0.25    
0.25    0.25    0.25    0.25    0.25    
0.25    0.21875    0.21875    0.21875    0.21875    
0.21875    0.21875    0.21875    0.21875    0.21875    
0.1875    0.1875    0.1875    0.1875    0.1875    
0.1875    0.1875    0.1875    0.1875    0.15625    
0.15625    0.15625    0.15625    0.15625    0.15625    
0.15625    0.15625    0.15625    0.125    0.125    
0.125    0.125    0.125    0.125    0.125    
0.125    0.125    0.09375    0.09375    0.09375    
0.09375    0.09375    0.09375    0.09375    0.09375    
0.09375    0.0625    0.0625    0.0625    0.0625    
0.0625    0.0625    0.0625    0.0625    0.0625    
0.03125    0.03125    0.03125    0.03125    0.03125    
0.03125    0.03125    0.03125    0.03125    0.0    
0.0    0.0    0.0    0.0    0.0    
0.0    0.0    0.0    
1.0    0.96875    0.9375    0.90625    0.875    
0.84375    0.8125    0.78125    0.75    0.96875    
1.0    0.9375    0.90625    0.875    0.84375    
0.8125    0.78125    0.75    0.96875    1.0    
0.9375    0.90625    0.875    0.84375    0.8125    
0.78125    0.75    0.96875    1.0    0.9375    
0.90625    0.875    0.84375    0.8125    0.78125    
0.75    0.96875    1.0    0.9375    0.90625    
0.875    0.84375    0.8125    0.78125    0.75    
0.96875    1.0    0.9375    0.90625    0.875    
0.84375    0.8125    0.78125    0.75    0.96875    
1.0    0.9375    0.90625    0.875    0.84375    
0.8125    0.78125    0.75    0.96875    1.0    
0.9375    0.90625    0.875    0.84375    0.8125    
0.78125    0.75    0.96875    1.0    0.9375    
0.90625    0.875    0.84375    0.8125    0.78125    
0.75    0.96875    1.0    0.9375    0.90625    
0.875    0.84375    0.8125    0.78125    0.75    
0.96875    1.0    0.9375    0.90625    0.875    
0.84375    0.8125    0.78125    0.75    0.96875    
1.0    0.9375    0.90625    0.875    0.84375    
0.8125    0.78125    0.75    0.96875    1.0    
0.9375    0.90625    0.875    0.84375    0.8125    
0.78125    0.75    0.96875    1.0    0.9375    
0.90625    0.875    0.84375    0.8125    0.78125    
0.75    0.96875    1.0    0.9375    0.90625    
0.875    0.84375    0.8125    0.78125    0.75    
0.96875    1.0    0.9375    0.90625    0.875    
0.84375    0.8125    0.78125    0.75    0.96875    
0.9375    0.90625    0.875    0.84375    0.8125    
0.78125    0.75    1.0    
0.0    0.0    0.0    0.0    0.0    
0.0    0.0    0.0    0.0    0.0    
0.0    0.0    0.0    0.0    0.0    
0.0    0.0    0.0    0.0    0.0    
0.0    0.0    0.0    0.0    0.0    
0.0    0.0    0.0    0.0    0.0    
0.0    0.0    0.0    0.0    0.0    
0.0    0.0    0.0    0.0    0.0    
0.0    0.0    0.0    0.0    0.0    
0.0    0.0    0.0    0.0    0.0    
0.0    0.0    0.0    0.0    0.0    
0.0    0.0    0.0    0.0    0.0    
0.0    0.0    0.0    0.0    0.0    
0.0    0.0    0.0    0.0    0.0    
0.0    0.0    0.0    0.0    0.0    
0.0    0.0    0.0    0.0    0.0    
0.0    0.0    0.0    0.0    0.0    
0.0    0.0    0.0    0.0    0.0    
0.0    0.0    0.0    0.0    0.0    
0.0    0.0    0.0    0.0    0.0    
0.0    0.0    0.0    0.0    0.0    
0.0    0.0    0.0    0.0    0.0    
0.0    0.0    0.0    0.0    0.0    
0.0    0.0    0.0    0.0    0.0    
0.0    0.0    0.0    0.0    0.0    
0.0    0.0    0.0    0.0    0.0    
0.0    0.0    0.0    0.0    0.0    
0.0    0.0    0.0    0.0    0.0    
0.0    0.0    0.0    0.0    0.0    
0.0    0.0    0.0    0.0    0.0    
0.0    0.0    0.0    
387.375774369    362.248888566    337.480582465    313.290286386    289.870491383    
267.380369242    245.942634065    225.643382945    387.2542089    361.890308841    
336.902572404    312.519785262    288.940818462    266.327982212    244.804149948    
224.45320993    387.00496128    361.155565466    335.719613014    310.945463749    
287.045014933    264.18659113    242.492773511    222.042277436    386.615032029    
360.007378724    333.874850427    308.497441775    284.10718638    260.880593852    
238.938075521    218.348533668    386.062820141    358.384066964    331.274968183    
305.062266529    280.005694944    256.290522362    234.030401037    213.276826414    
385.315001707    356.191100803    327.778688799    300.470961202    274.562804494    
250.2453996    227.616179841    206.696819642    384.32108759    353.286645732    
323.177725003    294.480084977    267.529162219    242.512091692    219.492099077    
198.44108755    383.003790506    349.456669531    317.165480494    286.742491475    
258.561667707    232.781705862    209.399037216    188.304565195    381.24119541    
344.370761383    309.285035963    276.762732717    247.193311262    220.654026828    
197.017778722    176.047445124    378.831425156    337.500144627    298.84116925    
263.830092162    232.794817791    205.623311459    181.970605712    161.404984002    
375.415785744    327.957222714    284.749404244    246.921648886    214.532556275    
187.073795499    163.83634866    144.109482032    370.290280849    314.163556238    
265.277576122    224.574542858    191.339962921    164.302965596    142.191511394    
123.931403971    361.872062264    293.129145263    237.622801146    194.758983499    
161.949786952    136.606592568    116.695327344    100.746606329    345.940885208    
258.858161405    197.325499696    154.888803041    125.09360882    103.478290378    
87.236599081    74.6313834736    308.974202372    199.037115449    137.932233197    
102.37712015    80.0575549099    64.9763610484    54.141395131    45.9710921879    
199.8930112    90.3838648288    52.9891974959    36.6298894546    27.7831296285    
22.2282037781    18.3815282152    15.5380421678    
0.984375    0.953125    0.921875    0.890625    0.859375    
0.828125    0.796875    0.765625    0.984375    0.953125    
0.921875    0.890625    0.859375    0.828125    0.796875    
0.765625    0.984375    0.953125    0.921875    0.890625    
0.859375    0.828125    0.796875    0.765625    0.984375    
0.953125    0.921875    0.890625    0.859375    0.828125    
0.796875    0.765625    0.984375    0.953125    0.921875    
0.890625    0.859375    0.828125    0.796875    0.765625    
0.984375    0.953125    0.921875    0.890625    0.859375    
0.828125    0.796875    0.765625    0.984375    0.953125    
0.921875    0.890625    0.859375    0.828125    0.796875    
0.765625    0.984375    0.953125    0.921875    0.890625    
0.859375    0.828125    0.796875    0.765625    0.984375    
0.953125    0.921875    0.890625    0.859375    0.828125    
0.796875    0.765625    0.984375    0.953125    0.921875    
0.890625    0.859375    0.828125    0.796875    0.765625    
0.984375    0.953125    0.921875    0.890625    0.859375    
0.828125    0.796875    0.765625    0.984375    0.953125    
0.921875    0.890625    0.859375    0.828125    0.796875    
0.765625    0.984375    0.953125    0.921875    0.890625    
0.859375    0.828125    0.796875    0.765625    0.984375    
0.953125    0.921875    0.890625    0.859375    0.828125    
0.796875    0.765625    0.984375    0.953125    0.921875    
0.890625    0.859375    0.828125    0.796875    0.765625    
0.984375    0.953125    0.921875    0.890625    0.859375    
0.828125    0.796875    0.765625    
10     2     1     11     
2     10     12     3     
3     12     13     4     
4     13     14     5     
5     14     15     6     
6     15     16     7     
7     16     17     8     
8     17     18     9     
10     11     20     19     
12     10     19     21     
13     12     21     22     
14     13     22     23     
15     14     23     24     
16     15     24     25     
17     16     25     26     
18     17     26     27     
19     20     29     28     
21     19     28     30     
22     21     30     31     
23     22     31     32     
24     23     32     33     
25     24     33     34     
26     25     34     35     
27     26     35     36     
28     29     38     37     
30     28     37     39     
31     30     39     40     
32     31     40     41     
33     32     41     42     
34     33     42     43     
35     34     43     44     
36     35     44     45     
37     38     47     46     
39     37     46     48     
40     39     48     49     
41     40     49     50     
42     41     50     51     
43     42     51     52     
44     43     52     53     
45     44     53     54     
46     47     56     55     
48     46     55     57     
49     48     57     58     
50     49     58     59     
51     50     59     60     
52     51     60     61     
53     52     61     62     
54     53     62     63     
55     56     65     64     
57     55     64     66     
58     57     66     67     
59     58     67     68     
60     59     68     69     
61     60     69     70     
62     61     70     71     
63     62     71     72     
64     65     74     73     
66     64     73     75     
67     66     75     76     
68     67     76     77     
69     68     77     78     
70     69     78     79     
71     70     79     80     
72     71     80     81     
73     74     83     82     
75     73     82     84     
76     75     84     85     
77     76     85     86     
78     77     86     87     
79     78     87     88     
80     79     88     89     
81     80     89     90     
82     83     92     91     
84     82     91     93     
85     84     93     94     
86     85     94     95     
87     86     95     96     
88     87     96     97     
89     88     97     98     
90     89     98     99     
91     92     101     100     
93     91     100     102     
94     93     102     103     
95     94     103     104     
96     95     104     105     
97     96     105     106     
98     97     106     107     
99     98     107     108     
100     101     110     109     
102     100     109     111     
103     102     111     112     
104     103     112     113     
105     104     113     114     
106     105     114     115     
107     106     115     116     
108     107     116     117     
109     110     119     118     
111     109     118     120     
112     111     120     121     
113     112     121     122     
114     113     122     123     
115     114     123     124     
116     115     124     125     
117     116     125     126     
118     119     128     127     
120     118     127     129     
121     120     129     130     
122     121     130     131     
123     122     131     132     
124     123     132     133     
125     124     133     134     
126     125     134     135     
127     128     137     136     
129     127     136     138     
130     129     138     139     
131     130     139     140     
132     131     140     141     
133     132     141     142     
134     133     142     143     
135     134     143     144     
136     137     153     145     
138     136     145     146     
139     138     146     147     
140     139     147     148     
141     140     148     149     
142     141     149     150     
143     142     150     151     
144     143     151     152     

