Title = " tecplot file for 2D Cavity problem " 
variables = "x", "y", "z", "velX", "cellCentroidY" 
Zone T = "nmesh0" N = 157 E = 128 DATAPACKING = BLOCK, VARLOCATION = ([4-5]=CELLCENTERED),  ZONETYPE=FEQUADRILATERAL 
0.96875    1.0    0.96875    1.0    0.96875    
1.0    0.96875    1.0    0.96875    1.0    
0.96875    1.0    0.96875    1.0    0.96875    
1.0    0.96875    1.0    0.96875    1.0    
0.96875    1.0    0.96875    1.0    0.9375    
0.9375    0.9375    0.9375    0.9375    0.9375    
0.9375    0.9375    0.9375    0.9375    0.9375    
0.9375    0.90625    0.90625    0.90625    0.90625    
0.90625    0.90625    0.90625    0.90625    0.90625    
0.90625    0.90625    0.90625    0.875    0.875    
0.875    0.875    0.875    0.875    0.875    
0.875    0.875    0.875    0.875    0.875    
0.84375    0.84375    0.84375    0.84375    0.84375    
0.84375    0.84375    0.84375    0.84375    0.84375    
0.84375    0.84375    0.8125    0.8125    0.8125    
0.8125    0.8125    0.8125    0.8125    0.8125    
0.8125    0.8125    0.8125    0.78125    0.78125    
0.78125    0.78125    0.78125    0.78125    0.78125    
0.78125    0.78125    0.78125    0.78125    0.75    
0.75    0.75    0.75    0.75    0.75    
0.75    0.75    0.75    0.75    0.75    
0.71875    0.71875    0.71875    0.71875    0.71875    
0.71875    0.71875    0.71875    0.71875    0.71875    
0.71875    0.6875    0.6875    0.6875    0.6875    
0.6875    0.6875    0.6875    0.6875    0.6875    
0.6875    0.6875    0.65625    0.65625    0.65625    
0.65625    0.65625    0.65625    0.65625    0.65625    
0.65625    0.65625    0.65625    0.625    0.625    
0.625    0.625    0.625    0.625    0.625    
0.625    0.625    0.625    0.59375    0.59375    
0.59375    0.59375    0.59375    0.59375    0.5625    
0.5625    0.5625    
0.65625    0.65625    0.625    0.625    0.59375    
0.59375    0.5625    0.5625    0.53125    0.53125    
0.5    0.5    0.46875    0.46875    0.4375    
0.4375    0.40625    0.40625    0.375    0.375    
0.34375    0.34375    0.3125    0.3125    0.65625    
0.625    0.59375    0.5625    0.53125    0.5    
0.46875    0.4375    0.40625    0.375    0.34375    
0.3125    0.65625    0.625    0.59375    0.5625    
0.53125    0.5    0.46875    0.4375    0.40625    
0.375    0.34375    0.3125    0.65625    0.625    
0.59375    0.5625    0.53125    0.5    0.46875    
0.4375    0.40625    0.375    0.34375    0.3125    
0.65625    0.625    0.59375    0.5625    0.53125    
0.5    0.46875    0.4375    0.40625    0.375    
0.34375    0.3125    0.65625    0.6875    0.625    
0.59375    0.5625    0.53125    0.5    0.46875    
0.4375    0.40625    0.375    0.6875    0.65625    
0.625    0.59375    0.5625    0.53125    0.5    
0.46875    0.4375    0.40625    0.375    0.6875    
0.65625    0.625    0.59375    0.5625    0.53125    
0.5    0.46875    0.4375    0.40625    0.375    
0.65625    0.625    0.59375    0.5625    0.53125    
0.5    0.46875    0.4375    0.40625    0.375    
0.34375    0.65625    0.625    0.59375    0.5625    
0.53125    0.5    0.46875    0.4375    0.40625    
0.375    0.34375    0.65625    0.625    0.59375    
0.5625    0.53125    0.5    0.46875    0.4375    
0.40625    0.375    0.34375    0.65625    0.625    
0.59375    0.5625    0.53125    0.5    0.46875    
0.4375    0.40625    0.375    0.59375    0.625    
0.5625    0.53125    0.5    0.46875    0.625    
0.59375    0.5625    
0.0    0.0    0.0    0.0    0.0    
0.0    0.0    0.0    0.0    0.0    
0.0    0.0    0.0    0.0    0.0    
0.0    0.0    0.0    0.0    0.0    
0.0    0.0    0.0    0.0    0.0    
0.0    0.0    0.0    0.0    0.0    
0.0    0.0    0.0    0.0    0.0    
0.0    0.0    0.0    0.0    0.0    
0.0    0.0    0.0    0.0    0.0    
0.0    0.0    0.0    0.0    0.0    
0.0    0.0    0.0    0.0    0.0    
0.0    0.0    0.0    0.0    0.0    
0.0    0.0    0.0    0.0    0.0    
0.0    0.0    0.0    0.0    0.0    
0.0    0.0    0.0    0.0    0.0    
0.0    0.0    0.0    0.0    0.0    
0.0    0.0    0.0    0.0    0.0    
0.0    0.0    0.0    0.0    0.0    
0.0    0.0    0.0    0.0    0.0    
0.0    0.0    0.0    0.0    0.0    
0.0    0.0    0.0    0.0    0.0    
0.0    0.0    0.0    0.0    0.0    
0.0    0.0    0.0    0.0    0.0    
0.0    0.0    0.0    0.0    0.0    
0.0    0.0    0.0    0.0    0.0    
0.0    0.0    0.0    0.0    0.0    
0.0    0.0    0.0    0.0    0.0    
0.0    0.0    0.0    0.0    0.0    
0.0    0.0    0.0    0.0    0.0    
0.0    0.0    0.0    0.0    0.0    
0.0    0.0    0.0    0.0    0.0    
0.0    0.0    
8.91789172877    7.88573703552    26.5737751312    6.99520140959    23.5155920367    
6.21850149985    20.8717685118    5.53490179245    18.5624042964    4.92853693296    
16.5274705287    4.38699131085    14.7207915611    3.90034625202    13.106073369    
3.46052508583    11.6542148633    3.06083308858    10.3414460894    2.69562787712    
9.14801248107    8.0572274301    43.706138083    38.7310874526    34.4138763031    
30.6318766427    27.2917844631    24.3210854126    21.6622957403    19.2689937436    
17.1030319288    15.1325433253    13.3304914869    60.0157695746    53.2887433652    
47.4207726006    42.2594415041    37.6867052654    33.6094698839    29.9530304345    
26.6564324407    23.6691445592    20.9486374012    18.4585965623    75.2658361509    
66.9873437959    59.7210292243    53.2984115016    47.5861252059    42.4770584195    
37.8839236689    33.7345610225    29.9684764571    26.5342651562    23.3876725802    
89.2878614436    79.6737664    71.1775889916    63.6270500645    56.8823256313    
50.8287149138    45.3710447928    40.4294115148    35.9359350735    101.977719446    
91.2422713263    81.6885102661    73.1498741224    65.4874123341    58.5844308047    
52.3421290686    46.6761051612    41.5135781471    114.095398776    126.332767524    
113.285346197    101.629089184    91.1843066072    81.7965238134    73.3330187694    
65.6794668949    58.7369355069    52.4193019193    46.6510863798    123.201808511    
110.804432591    99.6231031513    89.5188957435    80.368672025    72.0634824848    
64.5068441361    57.6130805973    51.3058101537    131.746401272    118.763729449    
106.984777653    96.2872839726    86.5592910901    77.6989468736    69.613877931    
62.2203661714    55.4424633945    138.955307227    125.519306198    113.264994031    
102.086171395    91.8822614837    82.5591359789    74.0293545323    66.2120427532    
49.211118345    59.0325588512    52.4220459779    144.872439435    131.093194002    
118.469720875    106.910146089    96.3244474662    86.6259810196    77.7323614563    
69.5658914452    62.0536832828    122.61054931    110.760244618    99.87940127    
89.8879791672    125.700922446    138.798994074    
0.640625    0.609375    0.640625    0.578125    0.609375    
0.546875    0.578125    0.515625    0.546875    0.484375    
0.515625    0.453125    0.484375    0.421875    0.453125    
0.390625    0.421875    0.359375    0.390625    0.328125    
0.359375    0.328125    0.640625    0.609375    0.578125    
0.546875    0.515625    0.484375    0.453125    0.421875    
0.390625    0.359375    0.328125    0.640625    0.609375    
0.578125    0.546875    0.515625    0.484375    0.453125    
0.421875    0.390625    0.359375    0.328125    0.640625    
0.609375    0.578125    0.546875    0.515625    0.484375    
0.453125    0.421875    0.390625    0.359375    0.328125    
0.640625    0.609375    0.578125    0.546875    0.515625    
0.484375    0.453125    0.421875    0.390625    0.640625    
0.609375    0.578125    0.546875    0.515625    0.484375    
0.453125    0.421875    0.390625    0.671875    0.671875    
0.640625    0.609375    0.578125    0.546875    0.515625    
0.484375    0.453125    0.421875    0.390625    0.640625    
0.609375    0.578125    0.546875    0.515625    0.484375    
0.453125    0.421875    0.390625    0.640625    0.609375    
0.578125    0.546875    0.515625    0.484375    0.453125    
0.421875    0.390625    0.640625    0.609375    0.578125    
0.546875    0.515625    0.484375    0.453125    0.421875    
0.359375    0.390625    0.359375    0.640625    0.609375    
0.578125    0.546875    0.515625    0.484375    0.453125    
0.421875    0.390625    0.578125    0.546875    0.515625    
0.484375    0.578125    0.609375    
3     4     2     1     
4     3     5     6     
3     1     25     26     
6     5     7     8     
5     3     26     27     
8     7     9     10     
7     5     27     28     
10     9     11     12     
9     7     28     29     
12     11     13     14     
11     9     29     30     
14     13     15     16     
13     11     30     31     
16     15     17     18     
15     13     31     32     
18     17     19     20     
17     15     32     33     
20     19     21     22     
19     17     33     34     
22     21     23     24     
21     19     34     35     
23     21     35     36     
26     25     37     38     
27     26     38     39     
28     27     39     40     
29     28     40     41     
30     29     41     42     
31     30     42     43     
32     31     43     44     
33     32     44     45     
34     33     45     46     
35     34     46     47     
36     35     47     48     
38     37     49     50     
39     38     50     51     
40     39     51     52     
41     40     52     53     
42     41     53     54     
43     42     54     55     
44     43     55     56     
45     44     56     57     
46     45     57     58     
47     46     58     59     
48     47     59     60     
50     49     61     62     
51     50     62     63     
52     51     63     64     
53     52     64     65     
54     53     65     66     
55     54     66     67     
56     55     67     68     
57     56     68     69     
58     57     69     70     
59     58     70     71     
60     59     71     72     
62     61     73     75     
63     62     75     76     
64     63     76     77     
65     64     77     78     
66     65     78     79     
67     66     79     80     
68     67     80     81     
69     68     81     82     
70     69     82     83     
75     73     85     86     
76     75     86     87     
77     76     87     88     
78     77     88     89     
79     78     89     90     
80     79     90     91     
81     80     91     92     
82     81     92     93     
83     82     93     94     
85     73     74     84     
85     84     95     96     
86     85     96     97     
87     86     97     98     
88     87     98     99     
89     88     99     100     
90     89     100     101     
91     90     101     102     
92     91     102     103     
93     92     103     104     
94     93     104     105     
97     96     106     107     
98     97     107     108     
99     98     108     109     
100     99     109     110     
101     100     110     111     
102     101     111     112     
103     102     112     113     
104     103     113     114     
105     104     114     115     
107     106     117     118     
108     107     118     119     
109     108     119     120     
110     109     120     121     
111     110     121     122     
112     111     122     123     
113     112     123     124     
114     113     124     125     
115     114     125     126     
118     117     128     129     
119     118     129     130     
120     119     130     131     
121     120     131     132     
122     121     132     133     
123     122     133     134     
124     123     134     135     
125     124     135     136     
115     126     127     116     
126     125     136     137     
127     126     137     138     
129     128     139     140     
130     129     140     141     
131     130     141     142     
132     131     142     143     
133     132     143     144     
134     133     144     145     
135     134     145     146     
136     135     146     147     
137     136     147     148     
142     141     149     151     
143     142     151     152     
144     143     152     153     
145     144     153     154     
151     149     156     157     
156     149     150     155     

