Title = " tecplot file for 2D Cavity problem " 
variables = "x", "y", "z", "velX", "cellCentroidY" 
Zone T = "nmesh0" N = 293 E = 933 DATAPACKING = BLOCK, VARLOCATION = ([4-5]=CELLCENTERED),  ZONETYPE=FETETRAHEDRON 
-0.41745815834    -0.5    -0.5    -0.4300082147    -0.33969382413    
-0.33821104813    -0.3    -0.4    -0.5    -0.41741512105    
-0.5    -0.5    -0.5    -0.5    -0.41487956845    
-0.5    -0.2    -0.23654934253    -0.23442631643    -0.5    
-0.5    -0.5    -0.5    -0.41860062223    -0.5    
-0.5    -0.41816796048    -0.5    -0.5    -0.5    
-0.41568232088    -0.5    -0.43346245512    -0.5    -0.036539552942    
-0.1    -0.032957545583    0.0    -0.13666224726    -0.13378452454    
-0.43075397645    -0.5    -0.5    -0.41560975998    -0.24401451815    
-0.27857327461    -0.33351657523    -0.25818869482    -0.32791251751    -0.2420310765    
-0.27776193619    -0.33306600263    -0.15441928309    -0.26415387702    -0.22558563948    
-0.17605371148    -0.39634945989    -0.33276963805    -0.23336877561    -0.27676409483    
-0.41666113413    -0.36108124256    -0.075540573349    -0.12125059962    -0.12233015178    
-0.1658810894    -0.21442145109    -0.35903713107    -0.38899332285    -0.5    
0.018218039662    -0.030118683353    -0.031523656171    -0.07705043303    0.075273913793    
-0.081540942192    -0.071421034468    -0.064321370558    -0.12862838805    -0.1544154289    
-0.024988340214    0.075945161283    0.045580776326    -0.013383025303    -0.5    
-0.4149222672    -0.42031270266    -0.5    -0.40949591994    -0.5    
-0.5    -0.40546795726    -0.34200738938    -0.5    -0.5    
-0.5    -0.41490575671    -0.5    -0.41238322854    -0.5    
-0.5    -0.5    -0.40432208776    -0.5    -0.40545964241    
-0.5    -0.5    -0.41817352176    -0.5    -0.33084397547    
-0.41588535905    -0.5    -0.40753334761    -0.5    -0.40045493841    
-0.40561062098    0.027520179138    0.071248449385    0.13124883421    0.05497633249    
0.060427083065    -0.1486280825    -0.18488626182    -0.2427204482    -0.242702547    
-0.23927073798    -0.30079066753    -0.32834642832    -0.33475478502    -0.41449434413    
-0.30998492241    -0.33065524837    -0.26108842105    0.10916212201    0.11208969134    
0.011399649084    -0.053748317046    -0.18194536865    -0.24258606722    -0.14679513415    
-0.15645491866    -0.22906027462    -0.22041392326    -0.1710930563    -0.111761495    
-0.30063694715    0.17415370047    0.15496959329    -0.10732157528    -0.00076911469271    
-0.17937526107    -0.058950658888    -0.30518463254    -0.43993908167    -0.41476941821    
-0.41469320655    -0.13780000806    -0.0092536676675    -0.16023084521    -0.17534734309    
0.075355291367    -0.030030202121    -0.058995011316    -0.082493901253    -0.41808357835    
-0.3277609913    -0.42391347885    -0.40986120701    -0.41669696569    -0.40359905362    
-0.43093168736    -0.40607604384    -0.4106734097    -0.42181283236    -0.29728317261    
-0.042051788419    0.017661919817    -0.076444171369    -0.093923687935    0.02540740557    
-0.33793058991    -0.39718410373    -0.31114178896    -0.36220404506    -0.38879555464    
-0.33150443435    -0.22467558086    -0.19176098704    -0.2693310976    -0.34231925011    
-0.08715891093    -0.047226355567    0.043514356017    -0.24107302725    -0.1001540646    
-0.083267346025    0.047332841903    -0.041165109724    -0.31429108977    -0.32854515314    
-0.32110860944    -0.37150645256    -0.31548586488    -0.28796958923    -0.305768013    
-0.28083875775    -0.12605653703    -0.27375280857    -0.25071310997    -0.33818015456    
-0.30310287634    -0.32209268212    -0.16738939285    -0.098757520318    -0.12082306296    
-0.039546322078    -0.1325224936    -0.17177045345    -0.19182032347    -0.0067209075205    
-0.03237491101    0.033566184342    0.056703593582    -0.049583990127    -0.0081724626943    
-0.3121239543    -0.29695540667    -0.3343488276    -0.28587833047    -0.23276233673    
-0.33942726254    -0.22049382329    -0.28730630875    -0.34081944823    -0.23312325776    
-0.29246428609    -0.24865736067    -0.22919301689    0.077206209302    -0.33946800232    
0.031862605363    -0.04975425452    -0.14424198866    -0.14361406863    -0.21119880676    
-0.2402394712    -0.32929396629    -0.19837510586    -0.19645160437    -0.16309058666    
-0.20868697762    -0.089738331735    -0.089620292187    -0.093031041324    0.0158755593    
-0.032366167754    0.079498335719    -0.22727786005    -0.14509645104    -0.11982141435    
-0.22267621756    -0.23917742074    -0.17523249984    -0.097244560719    -0.18032833934    
-0.09914444387    0.042061634362    -0.21524465084    -0.18367117643    -0.22853043675    
-0.058467663825    -0.038092400879    -0.066529624164    -0.099340446293    0.044982854277    
-0.019804503769    0.06426165998    -0.094810500741    -0.13248485327    -0.094359830022    
-0.024417564273    -0.23926316202    -0.12341775    0.068103633821    0.015170675702    
-0.15145096183    -0.11430221051    -0.058520920575    -0.0041930982843    -0.25979873538    
0.12907977402    -0.019950056449    -0.11848574132    
0.33981467104    0.42960044238    0.4    0.42810857285    0.5    
0.39881754329    0.5    0.5    0.1    0.13700693754    
0.13330796726    0.2    -0.13555449361    -0.2    -0.13365527251    
-0.1    0.5    0.5    0.41021213387    0.33703198141    
0.3    0.5    0.41658102077    0.5    0.5    
-0.035376344277    -0.033163526401    0.0    0.41536299017    0.5    
0.5    0.5    0.051409269487    0.049220714793    0.5    
0.5    0.41476977044    0.5    0.5    0.41058757882    
0.5    0.5    0.41335376528    0.5    0.5    
0.42139291763    0.5    0.5    0.5    0.5    
0.42041674256    0.5    0.5    0.5    0.41390678287    
0.5    0.41950106621    0.5    0.5    0.41851401329    
0.5    0.42175656557    0.5    0.41362947226    0.5    
0.5    0.41201668978    0.41915145516    0.41870498657    0.32824588323    
0.5    0.41021424532    0.5    0.5    0.5    
0.41822323203    0.5    0.32273088462    0.40041485429    0.5    
0.41023689508    0.40488776565    0.5    0.40551966429    0.052400162046    
0.03543991968    -0.052761904895    0.25768143998    0.21832711995    0.23277564141    
0.16452430883    0.076917529106    0.052862812157    0.048223919968    -0.23341764585    
-0.11920000043    -0.21656090021    0.15265091045    0.17829310894    0.14408802079    
0.23814042066    0.2245709468    0.27016609907    -0.070394171848    -0.11893348396    
-0.0080818677598    -0.17442565478    -0.079890802503    -0.068741583773    -0.064639869175    
0.10323016346    0.1046394213    -0.29863846302    0.32446482401    0.29985645413    
0.048260491341    0.062263252802    0.035415314138    0.052376288664    -0.0083935976601    
0.14406319042    -0.057836333107    -0.10745344311    -0.11206135244    -0.0030102295461    
-0.2256248161    -0.21857130527    -0.1703180259    -0.25977108713    -0.23411175976    
0.33604261279    0.28281047204    0.32649983882    0.17826959491    0.23811814127    
0.1096214503    0.12253791368    0.10182720423    0.10754402934    0.050669524734    
0.14726805738    0.22529098708    0.29028022289    0.31904986558    0.22792232241    
-0.11567308009    0.10320707411    0.15262745436    0.16590942442    0.23199266606    
-0.003392345272    0.26088196039    -0.0049290945753    0.28847798705    0.23840468602    
0.36509612203    0.40203583241    0.35532894731    0.36799457669    0.39956691861    
0.40556415915    0.41147202253    0.5    0.4029161036    0.15882793069    
0.17298997537    0.34245127439    -0.16469444335    -0.16071881354    0.19848746061    
0.3814265132    -0.0080562373623    0.13119843602    0.0021690702997    0.12450686097    
-0.010382949375    0.20442558825    0.32958292961    0.43359217048    0.32341533899    
0.10476196557    0.28288769722    -0.1080025211    -0.05915017426    -0.0022261636332    
0.057966101915    0.19135580957    0.3276937902    0.28304952383    0.34059783816    
0.066371306777    -0.006048885585    0.28596025705    -0.06353725493    0.35140454769    
0.27131479979    0.30761867762    0.29751354456    0.19246333838    0.27609691024    
0.330745399    0.12770193815    0.18876847625    0.11980842799    0.00053410825785    
-0.098688803613    0.3102992475    0.33765742183    0.27473658323    -0.066976070404    
-0.14423176894    0.22808775306    0.30294573307    -0.024031469598    0.022327756509    
0.16369615495    0.23405236006    0.30080643296    0.19964146614    0.26174619794    
0.28397116065    0.1805921495    0.19606357813    0.18976834416    0.36908686161    
0.25749474764    0.40151166916    0.08257817477    0.013849774376    0.099920667708    
-0.033202510327    0.26186665893    0.18371337652    0.3508810997    -0.072664380074    
-0.086417846382    0.028308650479    -0.10072826594    0.32208579779    0.28060570359    
0.051580730826    0.0026446154807    -0.068703122437    0.047414053231    0.12184236199    
0.046832572669    0.016877345741    0.1916718781    0.22895142436    0.16244494915    
0.075854338706    0.11402367055    0.23688864708    0.34648191929    0.12777155638    
0.076066583395    0.12276419252    0.0078520355746    -0.014708385803    0.089447163045    
-0.13675382733    -0.052277233452    -0.0055818110704    0.20733335614    0.097218066454    
0.026923459023    0.024648226798    0.24710139632    -0.0056538614444    0.14390049875    
0.081637457013    0.16411808133    -0.0587884821    -0.021241758019    0.24680477381    
0.20794272423    0.21694687009    0.13191781938    -0.1283313036    -0.070242129266    
-0.02158492431    0.22371904552    0.14523732662    0.32530039549    0.11158268154    
-0.090106748044    0.19043906033    0.22169439495    0.43022921681    0.28757414222    
0.26909923553    0.22286942601    -0.16018170118    
0.5    0.42842079665    0.5    0.5    0.4035384777    
0.5    0.5    0.5    0.5    0.5    
0.4156556509    0.5    0.4129810924    0.5    0.5    
0.5    0.5    0.41486458384    0.5    0.39991355588    
0.5    0.3    0.34051168889    0.34442981311    0.4    
0.41575513319    0.5    0.5    0.13770129581    0.2    
0.14862009545    0.1    0.5    0.43150487733    0.41719225542    
0.5    0.5    0.5    0.41462228214    0.5    
0.43011353568    0.5    0.23931408161    0.24661425142    0.13365839796    
0.094432473183    0.098190204268    0.051448817209    0.19445884755    -0.030692917766    
0.0082965008914    0.0041336029887    0.052106558525    0.33582110334    0.35972952843    
0.32850290629    0.39269393682    0.29396832588    0.24088832304    0.29022592306    
0.050545338865    0.050956383348    0.14697752401    0.18341563642    0.24184870647    
0.16142068769    0.1786558032    0.14708971977    0.29500412941    0.28491718881    
-0.044275085471    -0.0060922489502    0.053796234592    -0.027797897199    0.045932745048    
0.3870999217    0.32948522844    0.5    -0.015183720738    -0.069859825877    
0.11474210024    -0.017267705873    0.33887500709    0.30274164677    0.13123981904    
0.071239039302    0.070287145674    0.32971925363    0.35577994585    0.41248016854    
0.32514038977    0.39476585388    0.5    0.33713707823    0.23969568284    
0.23531558774    0.17814914882    0.15496109524    0.109153606    0.06041772808    
0.11208199456    0.23030118148    0.28164586425    0.13031650259    0.17494806647    
0.23183135338    0.32576542873    0.38472351432    0.32543430837    0.5    
0.1741451472    0.23623451745    0.24282771349    0.17537589605    0.11385296285    
0.26840096712    0.5    0.41492205858    0.5    0.5    
0.5    0.5    0.4218134582    0.5    0.5    
0.5    0.41720235348    0.5    0.5    0.5    
0.40507993102    0.5    0.5    0.41238203645    0.5    
0.40513393283    0.5    0.40903988481    0.5    0.5    
0.5    0.5    0.41332420707    0.5    0.5    
0.41369006038    0.41588512063    0.5    0.41374370456    0.5    
0.41109591722    0.40931418538    0.40362745523    0.43584918976    0.5    
0.21264617145    0.29266831279    0.42102536559    0.41608563066    0.080442197621    
0.39553371072    0.20950149    -0.13288478237    -0.10735099763    0.41701319814    
0.5    0.34166565537    0.27060064673    0.4172065556    0.20888838172    
0.090965643525    0.17286729813    0.31602996588    0.34530383348    0.39659529924    
0.36995971203    0.41078492999    0.33389627934    0.061294995248    0.052092600614    
0.09305486083    0.19749359787    0.094171121716    0.26714044809    0.42494803667    
0.33254820108    0.40685939789    0.32722976804    0.28694593906    0.26864483953    
0.41912767291    0.5    0.42958766222    0.34509626031    0.11417367309    
0.065062306821    0.31000220776    -0.043345879763    0.14994361997    0.033728931099    
0.16062226892    0.24148575962    0.31186491251    0.23358654976    0.053837504238    
-0.028043944389    -0.004823774565    0.066082030535    0.12395049632    0.35113686323    
0.19516539186    0.41171085835    0.20952318609    0.43335348368    0.35181468725    
0.35594251752    0.3300344646    0.079299814999    0.017035059631    0.10158551484    
0.26147404313    0.1915037483    0.30612745881    0.27133256197    -0.078917212784    
0.21205984056    0.20654162765    0.17410893738    0.1727938056    0.10425288975    
0.12512798607    -0.0376653485    0.051262147725    0.033360939473    0.24105484784    
0.29045191407    0.27208101749    0.14730614424    0.23009197414    0.34185385704    
0.30914595723    0.26697871089    0.30619335175    0.27146923542    0.30808600783    
0.36249628663    0.24630178511    0.11507255584    0.26062273979    0.20235726237    
0.19620914757    0.23412257433    0.16908699274    0.23705966771    0.26289540529    
0.17086197436    0.35016521811    0.10178088397    0.13713715971    0.099740616977    
0.048695735633    0.03325330466    -0.0038632375654    -0.031982798129    0.015550041571    
0.1989158541    0.21341387928    0.3409306407    0.21491414309    0.16693411767    
0.3158211112    0.12354470044    -0.029195344076    0.052918769419    -0.034520238638    
0.023828176782    0.086114391685    0.021488841623    -0.057732902467    0.21636866033    
0.15856590867    0.18909034133    0.31263998151    -0.018989352509    0.12526865304    
0.075541429222    0.085725553334    0.099927298725    0.38276821375    0.016605032608    
0.26383394003    0.16025471687    0.052078723907    
380.086730075    373.93434748    368.525401871    331.862240519    151.471924293    
200.043728266    212.102786637    398.427319916    398.939369278    396.853969994    
399.516771406    399.742477244    399.107361807    147.436210412    215.035966919    
265.47743283    179.066389536    219.076557321    391.969935409    385.51603295    
349.974015275    201.980964439    206.145972179    211.051233561    398.946999241    
399.54091076    398.558090882    273.193045165    219.581108084    398.19702081    
399.577145645    398.895339036    396.870021606    396.146787072    202.599611947    
203.463390542    192.69234224    215.528991988    226.550190048    270.80785467    
173.70111624    254.314535543    228.702497867    222.584582275    269.682605537    
262.105267394    220.463718099    227.316018835    146.978350891    195.529451776    
205.206492751    192.918403627    251.124406255    36.6632942097    30.8431119255    
58.2886303276    59.0269578049    69.4146077306    66.0824719725    56.9182921946    
24.8567184847    28.8139792536    54.6459220504    51.7845111525    46.205343388    
70.7779523597    95.6976631376    201.703277472    255.221603253    68.046294651    
68.2845689736    116.832453913    61.6774868453    59.102109129    104.008863479    
109.327437764    332.335206188    283.321190555    313.954764194    347.380778287    
343.269158402    114.620133729    121.01273083    332.355389317    283.028134382    
207.913882562    225.126083521    73.7705789225    36.9463881641    26.0750203542    
100.870838896    56.2684053892    37.2697325367    172.21688622    124.609720013    
172.547184385    65.2803210647    86.2406084339    88.5367273743    58.2944676145    
141.925901331    29.4162307794    33.5762783114    91.601456877    76.9452187676    
134.509217349    74.6643914798    50.0898634657    32.498373321    55.5864310381    
47.8838579287    65.5645221774    34.8761770048    32.918992275    76.7069057705    
80.9442915948    60.4882340504    61.0852791418    111.458677286    68.8016614514    
158.889831768    45.1862476794    152.287583579    152.878231694    92.5129278179    
196.102049439    53.4682092664    53.8261745523    124.641498603    155.68039327    
102.504686552    278.185593589    277.279368375    211.167646475    325.181519993    
301.817749804    318.905613097    25.9482852192    23.8230972215    40.0812413223    
49.3669480274    47.016057237    48.2645236043    79.9952050498    50.5310306016    
48.0282477095    120.327258159    171.636077179    84.4280430186    103.436768698    
231.91264491    278.313192154    196.047535443    323.077245744    308.894948439    
302.71609207    39.4307642369    26.6593389813    30.8596868678    68.155996421    
66.2792805705    58.0067745393    73.3737543739    379.691399102    387.936944869    
388.12444809    377.212896325    396.571005802    396.308416919    395.733635582    
395.83322765    391.719554174    393.950424291    393.06105231    394.986260903    
381.361756852    385.27971473    375.20855002    367.213611929    380.33865804    
361.257435243    384.699634001    377.967386313    360.84854854    373.218612916    
392.927270415    396.200937003    392.644826365    397.195677725    398.289022733    
399.073661163    397.285708644    399.370830804    397.870507435    399.000090121    
398.697203941    396.794255085    391.071461825    394.045717354    382.450243944    
394.13960128    373.004795416    388.090038357    389.502592229    393.970361503    
389.474496918    392.702641045    379.359362657    385.270349799    391.643925774    
393.658249345    385.858080244    382.599653487    384.963908568    394.490673108    
397.052047647    399.2192632    398.632202495    397.517236175    399.186393758    
398.510872401    366.293595556    364.761691018    359.018222476    329.307049061    
335.075627083    353.734880869    310.725769336    267.384249368    219.661738278    
256.331547538    383.697306913    388.003076073    380.960925718    379.121317932    
387.543746885    393.291384503    392.569991867    389.96097481    384.13009146    
386.605071154    382.485854756    382.619019628    358.139310329    374.257876031    
380.099705685    371.77393865    321.014999669    352.98253477    348.921497337    
397.847587784    398.610886427    398.674091008    395.248003613    397.037314985    
397.288214367    397.25124845    394.933443863    391.753132106    391.481863938    
384.212875938    389.996187108    375.859726577    386.962428251    372.289622471    
376.305034488    384.949882978    395.23131263    386.164664814    393.180823727    
333.876353408    353.830342124    362.260278432    373.339446444    342.448954021    
380.783100444    339.344153187    360.294890077    361.621416295    388.021923473    
388.265894549    394.228825827    396.861655589    390.049949441    395.885706615    
394.269157717    371.711793963    390.197635833    396.218402243    383.099638279    
364.795150953    340.224596325    316.730649551    376.801271055    387.913623318    
395.468952758    358.408814937    397.741118828    397.562691677    391.893382453    
392.048873983    352.827199856    361.223774468    346.334870101    305.015017297    
240.34634553    209.667917914    172.976597784    168.957489232    94.7013994264    
41.5719435142    88.6822809025    146.963570822    44.0271589912    134.699412355    
87.8683096353    166.58573447    105.378711649    104.66659926    169.805961021    
246.358113583    297.984165406    309.009461521    360.917052975    309.971859823    
255.279467567    280.199722939    334.789321005    358.211844656    358.739753084    
249.185854659    209.382714891    194.681007843    201.172397413    67.4458499891    
135.736960196    84.1844053144    89.4148019808    44.2377009005    33.3866414756    
35.8769802293    140.558009341    65.2193898478    123.145990881    66.9583603271    
62.6085734963    108.95208026    118.851192027    66.4171848472    60.2815468253    
53.0111515784    31.8626354948    64.9300026748    388.654188517    389.955157547    
394.049045205    396.457873859    389.799817588    383.282791591    388.32609422    
393.704640487    396.247879571    386.472524454    372.741953406    258.943539905    
325.695335247    339.532249415    345.884566355    380.953598293    370.036724198    
323.397886656    276.864027266    336.926412075    301.515268416    394.342363913    
397.692254509    396.459336782    393.589455338    396.857376718    396.218100079    
394.331860299    392.271627618    389.92217355    399.176005954    399.63087072    
388.867321049    382.083072435    390.225933743    372.613234757    364.456871794    
385.324899483    375.709169394    349.566104974    373.648282294    359.696370025    
386.185117396    375.237043618    394.979954682    382.970647683    387.351009641    
372.673042223    378.675982047    389.374252017    393.695102894    394.959257302    
388.234619209    380.303556828    377.049186493    389.600216357    380.24477147    
357.140470805    354.943981714    374.171240389    392.952700043    396.971434048    
398.441920833    389.148198697    397.892739741    396.033113639    392.813966228    
382.782232367    380.770553092    396.771248004    395.027704489    377.148737982    
389.06680744    393.512492312    385.34337813    383.112950101    391.958747556    
393.653638464    385.303803877    381.793932481    379.790088683    371.984720416    
385.502019367    375.272952629    388.196462071    357.380335352    369.925908157    
339.34525001    350.31591348    370.893399963    372.970231116    356.090591263    
351.337782817    215.166736669    283.139286673    263.214386599    208.993358727    
115.41983187    36.7485095737    92.6219499239    20.0412388067    101.553486825    
11.2070639313    15.6548723327    104.477036687    111.860567276    359.315963445    
350.691904825    321.886043889    334.13693511    324.903508046    379.258187224    
273.245853604    328.902643197    376.270779221    300.780465776    391.243678447    
389.4421243    394.601213384    380.421827058    383.184435973    382.620920706    
387.276801106    390.991529255    398.37362871    392.798055064    391.061423136    
398.540910299    398.342470229    388.619255117    398.929315586    365.619572893    
377.405668187    385.238424066    391.468629337    390.781283597    381.136995404    
379.068445232    377.428674457    361.60984266    380.532780901    386.300844848    
373.719176643    353.574009532    378.091445006    366.497912223    339.928128885    
219.452282284    176.652648542    234.464377269    275.624015778    208.195851446    
236.382571831    285.529360808    293.922476087    274.817432448    257.631517486    
207.035543683    300.522265812    266.577928252    183.432415947    267.914328847    
213.853729597    282.970055673    204.482003853    305.477547529    359.937508603    
387.223933914    387.242855319    390.359906767    393.211008165    363.773248811    
396.129611524    392.580426435    392.826605581    387.896195048    376.367727995    
359.744282913    296.592830736    284.353327534    386.283791838    127.1850392    
172.563781879    148.949958176    161.757540232    144.570675279    145.355530599    
127.714245974    297.833705515    286.267561498    264.765537346    195.156589183    
156.961762482    151.912250638    348.617520838    346.720711917    346.68176045    
329.133357393    293.38637665    322.826611333    227.476220235    276.492936534    
241.414108798    220.779391736    204.755152214    361.074922706    372.039708974    
368.790641949    369.365937788    333.30775339    348.011688637    354.16220427    
334.173980067    336.385195413    365.911940309    342.390587901    357.245108609    
354.040426142    330.108527496    361.732512684    350.9195228    175.16971144    
203.551175226    134.687090036    184.166479675    232.323682162    231.589419939    
267.564900795    222.084278911    164.1437923    180.79193339    149.126619451    
178.409494803    195.447701445    161.350216377    385.655936794    378.893044583    
377.762554178    383.740312592    388.271154073    381.052960219    383.17761928    
381.104682782    326.866932223    388.181146696    340.828740464    389.831266913    
355.604665044    347.917766176    361.481197415    372.410818589    340.188887408    
350.902547656    380.196746436    353.609606009    344.54709017    149.424018781    
249.758554397    201.792591007    190.080612312    235.657150837    184.863000881    
397.330744668    381.161830077    378.529082575    360.521961421    374.498710669    
364.336926747    341.13633509    355.030072092    351.490858909    323.862254987    
297.611661723    329.930730802    293.58039937    286.474123508    292.58315803    
272.503969745    232.763748853    341.025554234    329.072640602    216.79470393    
203.380726774    152.431777561    165.509553314    199.930368318    164.676898178    
230.820861166    214.116722673    232.137161727    223.060931496    199.312865798    
287.653378236    297.633551948    255.385284869    276.944735312    295.476756634    
264.129509525    296.637646988    291.881156754    311.979029262    252.235430526    
127.896808558    292.420267441    255.856776489    234.854356262    231.459433432    
284.73932924    301.342222658    319.401368508    329.081874126    339.918787318    
313.478520948    315.350676061    256.089608154    215.700031545    248.351996853    
269.885019186    275.713721657    153.281098885    179.202240482    45.351004572    
111.131050835    166.264031365    358.995743101    345.299118841    342.783682856    
347.965993784    335.415141538    330.649589298    359.456908016    332.518135611    
363.634308157    367.276421305    373.556353525    370.210920969    364.454444448    
367.415549334    355.331510014    371.172260265    384.314473643    365.515260714    
375.706782508    382.967563339    381.184949088    376.749129703    374.588948774    
224.412638285    260.992023008    277.486557837    282.532638332    321.187774969    
244.327895999    378.658758225    376.274845914    377.472910094    374.963859208    
373.123169633    372.474860068    365.581863172    366.82630382    252.539271231    
329.39438739    306.698512384    298.764529873    314.035087551    304.228495404    
323.612842339    375.821505907    377.310632105    371.236153115    365.201921462    
363.378859062    357.951500882    372.090286315    368.360063281    364.012746114    
356.243428785    346.034155764    361.46871328    365.406095948    323.76378042    
350.49423515    367.337486292    336.392688152    377.297817719    374.50049715    
363.237091865    364.943980977    357.496041689    358.12365934    357.416431397    
352.008333994    369.344247782    346.800228194    379.093076561    376.617971176    
364.959219011    244.40448711    244.117461932    234.60366036    265.991993526    
233.280091167    248.221929555    301.862239351    279.255978273    290.945657382    
255.74915038    320.767383667    317.421905372    330.523249153    310.79114689    
313.538873896    322.972221518    262.096495671    252.294891891    275.102233166    
277.180749253    231.842191207    334.474824732    347.454094308    352.236246711    
331.54554284    330.738868858    325.3933196    355.710580155    336.822983688    
344.237882284    337.417363649    335.488150905    320.854608814    328.468758576    
253.803776942    240.151826189    227.749826781    218.71802035    258.668026983    
264.740949902    274.916323541    298.808290546    282.439070739    301.471607603    
283.843303647    193.794152971    305.236323984    330.786213477    310.94868855    
311.784928673    303.174271762    334.49414916    334.780923024    334.372786418    
326.238042237    294.584917311    323.344132463    355.373219258    364.381915528    
365.731922018    361.019212022    351.552697788    333.014863021    346.584224363    
338.568613807    338.076878802    347.663047859    336.820907312    328.680081909    
322.446414354    303.318413934    328.540507564    317.049529537    369.702032734    
369.598911635    366.173706472    371.862544018    361.346018636    367.53653898    
215.035409944    238.589435478    307.220555935    304.611187807    310.315152606    
294.585170187    333.734551569    341.044343795    341.721408829    325.287385017    
340.584881253    333.062546668    310.39878834    338.350837478    344.73588085    
322.320350546    342.054109542    341.158052045    343.949699139    305.816614609    
299.408787438    330.609014061    317.392313006    335.321630789    317.083840436    
366.215737324    361.270191086    303.898545855    309.582758155    292.840115882    
292.672841761    311.386070849    314.207702467    323.336249408    295.948959076    
352.891013433    348.504043129    360.004254884    337.050206087    326.969611323    
324.689662354    357.170389462    349.659468896    355.519199931    291.869344409    
293.137152864    310.912154311    302.190112645    279.007207192    338.514971215    
349.809079013    239.548121325    201.293798754    180.871762078    242.914419615    
246.295598331    246.964521122    364.321007206    310.944549011    311.111731777    
350.455616658    146.397747377    125.593782557    121.623433299    260.638015499    
276.045682402    348.906116565    350.920957898    356.137207864    361.34026155    
359.175343395    353.760639254    367.307944074    338.395059155    358.555266409    
267.78633269    289.19683193    292.98104969    281.809748839    279.709859329    
261.13603118    270.999575022    276.276977662    255.202584708    257.38226859    