Title = " tecplot file for 2D Cavity problem " 
variables = "x", "y", "z", "velX", "cellCentroidY" 
Zone T = "nmesh0" N = 295 E = 933 DATAPACKING = BLOCK, VARLOCATION = ([4-5]=CELLCENTERED),  ZONETYPE=FETETRAHEDRON 
0.42916656098    0.42842150611    0.4    0.34051337454    0.33600985395    
0.3    0.5    0.41584150354    0.5    0.5    
0.23931697742    0.23159534999    0.2    0.5    0.5    
0.41565943951    0.5    0.41248339184    0.5    0.5    
0.5    0.39991586198    0.5    0.5    0.41575913228    
0.5    0.5    0.5    0.5    0.5    
0.41672585222    0.5    0.0    0.051788512588    0.048302279937    
0.1    0.5    0.43249949214    0.5    0.5    
0.41596076012    0.5    0.43150808053    0.13770463614    0.13218280363    
0.5    0.5    0.41894367337    0.5    0.40994277596    
0.5    0.5    0.33714348864    0.42452907562    0.5    
0.5    0.3400972769    0.40643143654    0.5    0.5    
0.40456363559    0.5    0.5    0.41083729267    0.5    
0.5    0.41752371192    0.41802930832    0.32744805705    0.40966212749    
0.41724288464    0.5    0.5    0.41441592574    0.40083095431    
0.40529754758    0.5    0.075355291367    0.045580776326    0.054106608372    
0.16165715167    0.2552965064    0.21618300676    0.032099205532    0.12681150436    
0.075273913793    0.13917322365    0.1659873915    0.24049588671    0.21599367261    
0.22001201334    0.26720950007    0.32631998995    -0.031523656171    -0.024988340214    
-0.075540573349    0.089801393449    0.098131755548    0.075945161283    -0.030118683353    
-0.071421034468    -0.013383025303    -0.014308815683    -0.12233015178    0.199893713    
0.32413241278    0.060427083065    0.10916212201    0.11208969134    0.15496959329    
0.23030810958    0.28165134788    0.28492171403    0.32972420545    0.011399649084    
0.071248449385    0.13124883421    0.17415370047    0.23624265987    0.23184024665    
0.29951098561    0.32514679745    0.43463635445    0.41288724785    0.4183511734    
0.33426624537    0.404743433    0.42098331451    0.41994029284    0.41080650687    
0.42240139842    0.5    0.41142642498    0.31229171157    0.15790265799    
0.17538171111    -0.13780000806    -0.0092536676675    -0.064321370558    -0.032957545583    
0.34415650368    0.11961134523    -0.030030202121    0.30331286788    0.1236821264    
0.22944653034    0.34785842896    0.17347851396    0.20889785886    -0.042051788419    
0.31296682358    0.38542744517    0.35841032863    0.34836876392    -0.076444171369    
0.12949699163    0.02540740557    0.046723969281    0.3537606895    0.043514356017    
-0.00076911469271    0.017661919817    0.25203999877    0.3027382791    0.28961977363    
0.27539527416    0.20948413014    0.31029897928    0.36348101497    0.27479037642    
0.34152519703    0.28594651818    0.26374059916    0.23977512121    0.16394655406    
-0.1001540646    -0.12125059962    0.031862605363    0.15861544013    0.047332841903    
0.16273595393    0.15969090164    0.32779544592    0.23224464059    0.23529757559    
0.31985118985    0.33092859387    0.21880926192    0.32444682717    0.27762913704    
0.22624154389    0.16945490241    0.06426165998    0.10646748543    0.03918877244    
0.13161307573    0.22722111642    0.10399028659    0.1569955647    0.20344738662    
0.20461961627    -0.0067209075205    0.014297979884    -0.083267346025    0.040696881711    
-0.03237491101    -0.1325224936    -0.039546322078    0.056703593582    0.077206209302    
0.19898495078    0.27723261714    0.29425120354    0.32784238458    0.28737694025    
0.12949590385    0.051468979567    0.028138827533    0.30145633221    0.029059011489    
-0.019574807957    0.13262072206    0.20047597587    0.15730819106    -0.16738939285    
-0.19645160437    0.044982854277    0.14505885541    0.1281991899    0.033566184342    
0.24076008797    0.19546446204    0.14146855474    0.1277204752    0.049275837839    
0.021336633712    0.099765390158    0.21671915054    0.16263964772    -0.089620292187    
-0.16309058666    -0.093031041324    0.12223561108    0.0158755593    0.079498335719    
-0.066529624164    -0.04713287577    0.22022998333    0.13536153734    -0.071007244289    
0.25979170203    -0.031658235937    0.0094026327133    0.067133828998    0.042061634362    
0.093645699322    0.094177126884    0.09027723223    -0.058467663825    0.12012530863    
0.20185385644    0.11529561877    -0.10070315748    -0.099340446293    -0.11982141435    
-0.18032833934    -0.019804503769    -0.038092400879    -0.094810500741    0.040998559445    
-0.062918752432    -0.0086802467704    -0.045799732208    -0.024417564273    -0.032366167754    
-0.14509645104    -0.23926316202    -0.19837510586    0.1961221993    0.068103633821    
0.015170675702    -0.15145096183    -0.014718302526    -0.0041930982843    -0.036539552942    
0.19300557673    0.44331139326    0.28096622229    0.23233468831    0.12907977402    
0.20268413424    0.052900869399    -0.019950056449    0.30142802    0.19189736247    

0.5    0.429596752    0.5    0.4165745512    0.5    
0.5    0.5    0.5    0.40021852449    0.5    
0.41334446407    0.5    0.5    0.13852409406    0.2    
0.13329818812    0.1    0.23276613717    0.23984721179    0.3    
0.34081689785    0.33702374977    0.4    0.0    -0.035386706556    
-0.031990237213    -0.1    0.05250692366    0.5    0.41638409393    
0.5    0.5    0.5    0.43123165166    0.5    
0.5    0.432153258    0.5    0.5    0.41627475889    
0.5    0.5    0.049213199433    0.415353217    0.5    
0.42856487181    0.5    0.38986676931    0.33028126457    0.35635510087    
0.41286418147    0.32591989422    0.048207845241    0.025440203026    0.055803920966    
-0.062441547325    0.5    0.39572280645    0.33874036624    0.23105213736    
0.28228649497    0.28552613117    0.060016010399    0.10955008119    0.11338168767    
0.15525254239    0.2887300849    0.38527554274    0.5    -0.075761467218    
0.18492367864    0.17639973484    0.23719398748    0.20783288777    0.11519511789    
0.27081358433    0.23650637431    0.40556415915    0.5    0.33694749971    
0.5    0.5    0.40817856789    0.5    0.42218753695    
0.5    0.5    0.5    0.5    0.40878561139    
0.5    0.40112841129    0.5    0.5    0.41023689508    
0.5    0.41237428784    0.5    0.40488776565    0.41021424532    
0.5    0.40551966429    0.5    0.5    0.40188318491    
0.5    0.14406319042    0.17826959491    0.23811814127    0.15262745436    
0.2245508896    0.27014958858    0.32823158508    0.25766636154    0.1096214503    
0.035415314138    0.052376288664    0.10320707411    0.10461747366    -0.0081041377747    
0.10577746481    0.16450707289    0.43160220981    0.5    0.41754481196    
0.4051028192    0.14297755063    0.026157518849    0.19208976626    0.21015691757    
0.34662178159    0.32682466149    0.31806838512    0.39575985074    0.41790369153    
0.324447623    0.40203583241    0.35532894731    0.32273088462    0.41476977044    
0.42463803291    0.39421370625    0.41147202253    0.40688899159    0.29598507285    
0.34675326943    0.23752991855    -0.0076216747984    0.19846518338    -0.010382949375    
-0.00888705533    0.10332142562    0.36555072665    0.32162237167    0.32958292961    
0.31126359105    0.32341533899    0.40195313096    0.2280818522    0.28596025705    
0.23199266606    0.20442558825    0.046330191195    0.13677279651    0.1197059527    
0.36280527711    0.29322531819    0.29386761785    0.27377107739    0.26993781328    
0.31281200051    0.35170808434    0.27493157983    0.4138597846    0.32931315899    
0.35140454769    0.41362947226    0.051580730826    0.15089358389    0.30761867762    
0.3275821209    0.34828823805    -0.00079069216736    -0.034587264061    0.05027442053    
0.21250197291    0.03782395646    -0.037056777626    0.32391750813    0.33522045612    
0.28740420938    0.19160328805    0.21694687009    0.28223505616    -0.037219654769    
0.05316022411    0.058760710061    0.10001272708    0.23456151783    0.095006659627    
0.14584951103    0.26174619794    0.29378727078    0.27131479979    0.357855618    
0.28397116065    0.23405236006    0.16369615495    0.19606357813    0.32208579779    
0.24614353478    0.20232315361    0.14728799462    0.1796207428    0.07962167263    
0.025489391759    -0.082342945039    0.02280225046    0.07716075331    -0.040290866047    
-0.15404245257    0.0047129187733    -0.026395486668    -0.0029765672516    0.30294573307    
0.22895142436    0.24680477381    -0.031002148986    0.1128847003    0.1805921495    
0.0042603965849    -0.07660485059    0.1021591574    0.16882608831    0.14738327265    
0.12662006915    0.062003210187    0.1858946681    0.22532527149    0.23688864708    
0.16244494915    0.34648191929    0.18951381743    0.12777155638    0.12276419252    
-0.0587884821    0.052678707987    0.16222573817    0.26129713655    -0.095085553825    
-0.052988871932    0.097736671567    0.043773494661    0.10779263824    0.024648226798    
-0.085883244872    -0.10807587951    -0.021924061701    0.081637457013    0.26801609993    
0.24808271229    0.14785385132    0.026198217645    -0.021241758019    0.089447163045    
0.097218066454    0.20794272423    0.16411808133    0.13191781938    -0.12770707905    
-0.037860002369    -0.092203900218    -0.13083967566    -0.02158492431    0.076066583395    
-0.014708385803    0.22371904552    0.1916718781    0.26006263494    0.32530039549    
0.11158268154    -0.090106748044    0.12909922004    0.43022921681    0.5    
0.063307881355    0.2766187191    0.197726354    0.1298456341    0.26909923553    
-0.037892248482    0.18781583011    0.22286942601    0.13790594041    -0.10078287125    

0.42793796214    0.5    0.5    0.5    0.39869486687    
0.5    0.3    0.33954888182    0.33729795577    0.4    
0.5    0.41140110409    0.5    0.41649616432    0.5    
0.5    0.5    0.5    0.41390045096    0.5    
0.41683809598    0.5    0.5    0.5    0.5    
0.41686231736    0.5    0.43263315932    0.0    -0.03482816    
-0.034013318223    -0.1    0.5    0.5    0.43218772171    
0.5    0.049668605697    0.050932008248    0.1    0.1338315988    
0.13663319722    0.2    0.5    0.5    0.41553842165    
0.42971742824    0.5    0.39461782575    0.25823932804    0.21887886524    
0.23313293902    0.16526434067    0.5    0.39658492804    0.34025933377    
0.32777533286    0.051700528289    0.077648535371    0.049445390921    0.22544000624    
0.27084487677    0.32885534463    0.1450578912    0.17947740853    0.24033164112    
0.15304269004    0.38653129339    -0.07909090817    -0.06652190812    0.38591915369    
0.38540664315    0.32582332107    0.10549143739    0.16132470965    0.30213809013    
0.049918755889    -0.0051805641003    0.39553371072    0.33887500709    0.5    
0.32333626661    0.32687551764    0.35387095809    0.14345253318    0.075629703701    
0.045932745048    0.13620338323    0.044752991542    0.10595417938    0.048317167908    
0.22436354054    0.27786177397    0.28234629154    0.053796234592    0.11474210024    
0.14697752401    0.17156606913    0.23504228926    -0.017267705873    -0.0060922489502    
0.32948522844    0.30274164677    0.23986469613    0.24184870647    0.1555070281    
0.17247740856    0.5    0.41238203645    0.5    0.5    
0.5    0.40431883931    0.5    0.5    0.40513393283    
0.41492205858    0.5    0.41588512063    0.5    0.5    
0.40453821421    0.5    0.2882578373    0.23814801874    0.15958067775    
-0.0074634975754    0.0837681517    0.30531173944    0.25303474069    -0.022460795939    
0.0029560043477    -0.067293913511    0.13202397525    0.39901018143    0.41640809178    
0.5    0.29266831279    0.42102536559    0.5    0.5    
0.22703492641    0.285489887    0.20950149    0.11633669585    0.39578789473    
0.42512735724    0.33843892813    0.4051745832    0.40359783173    0.36995971203    
0.38198536634    0.38756379485    0.3114284277    0.43017831445    0.33389627934    
0.12092830241    0.052092600614    0.24348624051    0.42333212495    0.42958766222    
0.5    0.41078492999    0.037774868309    0.0090291341767    0.13685636222    
0.19342458248    0.304577142    0.27183353901    0.19242742658    0.18705484271    
-0.044781114906    0.047008216381    0.0049936147407    -0.041891459376    -0.018255880103    
0.11417367309    0.18341563642    0.30914595723    0.31712794304    0.31000220776    
0.21818335354    0.34207472205    0.28414472938    0.32898157835    0.38097414374    
0.086622461677    0.1615049094    0.11095100641    0.13274617493    0.34363538027    
0.099046066403    0.163947016    0.086114391685    0.036438047886    0.33446398377    
0.33370113373    0.29367023706    0.23530095816    0.34298023582    0.19563245773    
0.065897509456    0.10158551484    0.17785108089    0.065062306821    0.1284172684    
0.26147404313    0.3300344646    0.35594251752    0.30612745881    0.23009197414    
0.22885876894    0.35917812586    0.30139288306    0.21038195491    0.33457097411    
-0.087655283511    -0.057664580643    -0.050664272159    0.24057671428    0.059226922691    
0.034136377275    0.17605555058    -0.024072546512    0.052815146744    0.20952318609    
0.26062273979    -0.034520238638    0.29424887896    0.14954343438    0.1915037483    
0.19721028209    0.2294396162    -0.01128491573    -0.11933533102    -0.047469347715    
0.052222408354    0.08092341572    -0.033421739936    0.079760968685    0.16908699274    
0.20235726237    0.23705966771    0.2424338907    0.26289540529    0.35016521811    
-0.029195344076    0.020682629198    0.25277805328    0.18298453093    0.11393018812    
0.26113656163    -0.07657096535    0.094147279859    -0.17102652788    0.21341387928    
0.20955140889    0.31131532788    -0.0038021896034    0.3158211112    -0.039259042591    
-0.1201742515    0.061055991799    -0.05257004872    0.052918769419    0.099740616977    
0.015550041571    0.023828176782    0.12354470044    0.021488841623    0.11486391723    
-0.10979653895    -0.14223906398    -0.07355145365    0.15856590867    0.17086197436    
0.13713715971    0.18909034133    0.11507255584    -0.028945000842    -0.018989352509    
0.12526865304    0.075541429222    -0.15494127572    0.38276821375    0.41719225542    
0.10828005522    0.19240835309    0.43946272135    0.3662661612    0.26383394003    
0.27586504817    -0.11339323968    0.16025471687    0.37004882097    0.32066789269    

221.135856252    282.804330895    263.181187322    147.510163659    197.315668827    
159.256066697    186.622896722    225.91809268    235.426897033    235.664452735    
192.710949686    195.282550351    200.187097466    395.167780803    398.696790998    
398.239014693    390.416324336    396.746284764    392.647142611    383.049687322    
391.097386673    373.571362522    398.47408708    399.502506099    398.739307369    
395.408636656    398.791842843    261.785902363    214.247377404    216.580972701    
179.055399724    187.00233433    126.051063442    133.73400429    201.023995063    
175.8565997    249.65114518    268.210308698    223.275737788    146.137220591    
189.950952543    172.791913601    195.673980356    399.543678796    398.321362407    
396.346585854    203.145621065    209.053975555    250.651060779    160.770154324    
220.692181427    271.486020321    365.561872667    340.427392644    221.983085321    
280.531980156    244.842237941    331.006352703    342.533261882    365.693271472    
126.343885597    209.731131576    357.094614397    367.332462186    373.480255505    
315.793117823    154.487064248    166.190601145    230.052568066    366.188549039    
311.653449504    351.563950608    324.192517501    350.24144151    395.319784826    
397.099645343    398.502865785    398.971057781    397.327515708    398.565661591    
396.330808773    395.194677258    398.233273292    396.074273417    396.824179479    
89.5510093633    81.5833323111    93.0420902509    189.704997306    323.995776158    
217.563126432    323.678265303    303.318726353    373.756234408    374.123716393    
338.034232545    365.113191006    382.209808342    390.450537891    382.729835455    
339.12747928    375.006596019    389.820893774    319.571209991    381.254279323    
392.237043533    347.770137485    387.716748688    377.074754677    385.621001934    
235.308685579    394.339836705    377.776805425    388.665738495    395.238144979    
396.319027436    390.451496501    378.64785158    360.840845142    351.12743624    
367.534049827    339.497667614    394.145915117    389.260414555    392.053204192    
374.705178053    385.23086844    378.407978514    376.312380103    394.081098099    
394.122284689    386.942436759    392.116700323    387.501323207    379.347925012    
354.864645023    373.695033317    353.28128845    174.973967466    68.0295251662    
58.518244178    95.3298235995    299.124134272    318.075791836    316.786235783    
207.552346696    104.001288611    85.7288438223    115.449291804    65.4773979583    
96.4434299297    83.8243887312    52.0562984407    22.4250832951    17.3741261293    
44.552594152    24.4970745476    47.2237320077    47.2023434526    68.0934007236    
49.4212018494    50.1619568048    80.1970355043    122.769770242    109.222740991    
72.2784494763    106.329658622    26.5640193396    22.2489798156    44.4393726481    
68.4706222144    28.8030733352    52.3344738893    47.8538703752    65.5398383032    
38.2359495059    34.2430344996    54.5984065149    72.2335937136    56.4569459587    
32.7829228571    25.080916482    66.7176797286    81.0980099823    40.2437808337    
119.802550686    126.634631493    80.7689654434    64.7274721773    79.740001687    
375.568179301    385.918192174    382.269047055    365.740950741    378.444167653    
364.780660521    377.405502459    364.117877225    373.51474782    377.109792973    
365.896820536    374.030364363    382.422221069    394.191497117    394.441876229    
389.091999972    390.193350933    386.184164141    392.821790739    390.719207989    
389.176924161    99.9826791299    56.1295893954    84.1933500611    121.318456377    
317.71742205    357.553643377    334.262867026    255.351036609    297.105344572    
197.459435021    262.2196535    204.611785788    126.751939923    282.021160724    
94.5708361547    58.3468876422    101.001853852    89.1590011473    159.330997425    
204.757084246    199.726161539    205.515404551    201.259541506    298.255340967    
347.508434341    321.467683787    311.651525379    117.952310867    55.3288103674    
109.565031645    176.284988893    370.789254396    373.15793474    389.835791224    
391.731460271    377.991180618    360.355059801    390.348256339    354.409867696    
393.850861184    388.915328667    363.586241    360.010418429    359.791514592    
296.603814063    337.948992659    376.540389175    370.01410373    306.339138258    
344.753451333    170.956398187    200.289932431    365.795971314    374.903749395    
358.678556279    346.001138351    312.599009678    315.063089983    354.831981796    
237.741178602    249.489722688    329.205462253    313.456545471    334.965697582    
279.440700087    331.272586857    241.481532499    191.901408177    193.6746379    
76.053324068    73.7210034318    113.347387942    187.271224484    117.768414958    
131.829079702    177.494649706    287.993311987    288.482101086    122.27923875    
62.1674422629    103.52823343    126.664326193    248.796009354    320.940556405    
345.941518115    298.166407893    319.867008553    86.557012318    353.184952262    
364.155678755    342.593289376    265.390121299    244.394402613    304.138062636    
138.269995633    40.3278178994    209.064951565    217.222961885    117.955187295    
37.0867601286    83.3783427914    99.2703811723    137.156054703    125.150238365    
80.2678013018    99.1443896944    42.8502593984    135.943018128    103.718733408    
43.6772291325    184.420988125    171.316959418    60.2470538112    116.538492206    
177.134326234    94.5361751511    159.395605549    135.460482969    104.514382182    
73.9711854098    68.4037494623    25.4624558474    47.701988569    28.3938796209    
71.6996737473    159.971222762    115.316622672    34.9545268688    58.6932351281    
50.7737358351    188.343415946    117.749245239    174.753202491    94.5685723362    
144.485743691    360.252417077    371.527007919    353.361459079    360.875435741    
309.231368735    248.480757684    311.467547533    317.173443941    368.03419214    
237.294552012    380.69963011    361.397970949    335.984421935    355.968960143    
274.829771417    341.802439363    239.931803983    353.677665607    353.517639816    
333.29500345    357.450292973    325.660582889    387.051588863    383.649928633    
373.882739866    386.678600602    388.916568851    383.899299584    376.219481603    
352.843127834    378.981878298    354.863523378    349.785772063    336.49600674    
321.715143078    363.784792381    323.326178635    387.130677368    387.159186985    
382.001102364    391.514416177    389.602293352    377.97442379    395.259170465    
388.637359239    382.102165545    388.046982514    388.21098684    394.048996381    
396.17592337    382.788060144    387.068003275    370.7516895    106.167656153    
196.304498832    201.28256447    302.915346108    314.680695089    305.001743599    
341.023785961    314.737873889    279.556288938    338.193553589    231.96414931    
304.816768513    287.593582639    387.066715344    372.683011175    261.941152193    
388.291837587    364.081658821    263.964834803    298.947621324    344.49861598    
378.632886586    372.220320353    143.359348732    130.275498273    145.70478288    
150.407334207    105.319012183    106.507166293    128.51514297    164.849052676    
29.8516665235    32.5821491456    169.723101397    119.307380657    143.096622088    
370.959827083    338.605193111    340.898071376    312.172576171    392.107950708    
360.389837012    375.721620272    380.24745865    393.726057541    372.346863228    
384.768888975    381.333369259    386.104459543    317.798398944    264.145491119    
270.199123931    169.609297756    159.281018036    154.884119439    198.215977039    
236.351812711    218.074956188    198.510667735    230.622820661    223.997802505    
225.286141836    245.293553163    213.70197862    252.078809047    284.353768621    
239.149048874    309.199212296    314.637196563    291.023888063    244.911825292    
258.234178541    221.94565092    287.070554698    319.712247315    245.303048964    
195.262147471    239.515332966    240.890415704    163.888931531    153.854132065    
170.596707719    146.034740109    141.164740677    359.789999355    366.97122116    
359.18405846    369.207808256    354.233013502    352.061541541    337.493779435    
214.39307525    226.931240571    215.50179619    292.884414772    242.075845374    
209.258282572    181.34484293    188.176104773    208.810659407    235.854306067    
195.702324143    173.661273233    180.502031829    151.173962846    172.864275201    
160.953067918    239.262127639    289.653776913    220.649158794    250.537145233    
224.808176728    217.400511226    207.454102897    205.511755094    379.883729873    
373.138877067    379.859429894    392.419523989    380.711057009    380.808093187    
280.427306218    308.416023291    314.402812333    285.504480193    326.964048474    
243.370841571    258.278070408    256.962613595    272.171000656    218.012875166    
268.226365872    306.338831935    184.869499349    262.526851265    192.073235915    
238.977342327    250.829704092    293.58644092    290.884781218    258.122263907    
282.398296519    290.329031448    301.119927715    310.548569846    302.392385447    
299.208823385    197.309843027    157.320814487    187.804849137    228.282930409    
205.332175061    269.943685161    273.730606618    254.579076843    290.0249106    
265.29457256    211.350447226    213.053297997    198.618600713    154.278220505    
198.574842845    221.911031592    147.987257089    144.77999826    148.729025267    
208.653498268    211.706050834    365.830951257    372.406026932    364.488951519    
361.676364389    359.944651499    371.865991291    365.46236315    360.913018886    
367.143405356    364.09174386    370.458006971    370.83259456    341.593030825    
343.817361369    351.168409335    334.567781318    351.646067596    315.128216571    
322.765656742    329.406359153    307.959002156    323.413935371    319.913757793    
333.747663045    341.611987689    296.49536042    264.380062908    310.7222704    
322.857888195    300.685288185    308.594328779    326.400016785    319.833293167    
304.238223713    311.743592971    216.658645017    207.795303681    181.800092561    
189.343021084    218.858214088    231.155109001    170.773266628    179.828854414    
163.53393548    152.271002262    194.663543247    115.728124611    132.698427098    
159.155366627    98.0851699021    148.372639416    150.092152179    172.522069264    
160.927710451    192.573891765    197.680179738    168.966416295    176.692662393    
188.60494718    305.666012542    331.295197516    283.859008188    273.224030737    
203.274245849    193.86598155    197.038959416    210.373681806    239.142856728    
241.617066378    245.783979194    282.135781478    227.445597265    281.32186693    
280.457108812    340.258372699    318.226933117    344.635992563    318.536296114    
321.955311444    310.320524845    297.631004659    354.356997342    353.360240179    
295.081605526    340.380670267    311.454709489    352.913246162    329.475582877    
335.236183758    338.738565093    353.77858518    342.143624614    372.372899991    
375.44626809    372.086448476    363.560546084    362.742665847    334.462957038    
354.552426695    365.89832856    343.460242138    353.514421748    329.91274574    
346.862250664    349.082134204    193.08730362    240.967394448    217.888917185    
376.112794133    370.553609542    374.960596957    357.569325886    352.008184401    
348.115765244    354.840992193    364.230237141    329.334380487    330.382461708    
311.138836774    284.789793035    274.680544117    275.453259199    258.305813572    
285.959764448    289.002535915    312.173307617    303.131797515    347.156513448    
341.941507895    338.762689117    331.002255777    339.150291836    341.250477304    
355.287495018    328.377894065    334.134419081    334.864994896    271.27618679    
300.802639212    309.647207685    302.592448936    285.496832365    303.337186541    
311.519155061    298.789644537    301.868087983    316.905416213    322.859448371    
324.541579897    309.163450107    273.586020157    242.6387603    242.385621236    
230.62523333    222.082986988    224.82709329    219.302846474    190.470008054    
262.070810364    257.921289197    240.787794575    192.479199671    157.575474452    
138.630864835    210.470844779    165.069336296    243.771690373    231.744987583    
240.308065722    171.153146716    288.392580352    303.460732065    315.649901732    
304.125882363    297.671961881    268.208149758    304.385798713    299.214920742    
326.324793475    333.02311258    325.646893379    337.941884357    344.269138024    
337.745809886    346.36629011    327.786890057    306.346855778    337.23068749    
346.165041345    340.633956499    328.221745179    354.611922849    356.462475401    
322.535751864    355.121658186    344.700271026    336.122367485    343.175248717    
345.639555204    338.689712932    328.24442401    331.600598508    355.518039556    
359.388717184    286.865256234    315.48810159    268.38653184    290.444237281    
292.548279526    308.142774816    334.577413188    329.387412975    343.427612314    
331.393805101    304.088190099    287.976732201    269.291017515    340.373216627    
216.610792964    262.402818712    235.678667017    246.805468809    237.846964995    
241.492930164    246.780685375    261.838301889    237.559595804    260.956369715    
349.58483424    359.716959566    293.948565835    304.981767344    314.877137586    
317.559066837    277.671809912    304.835931879    332.303464234    337.543178943    
327.316756176    340.553757828    342.504878027    334.614314739    308.761775745    
311.32075027    284.736794948    361.218325149    350.518129123    356.322650411    
318.714992117    327.987961691    320.508366393    327.406893984    338.803718416    
324.916329433    320.686951623    353.280299809    361.680103103    369.911140079    
367.96456341    360.452173137    373.75242844    339.720655543    330.712784855    
328.879473462    324.613337546    272.906418607    258.871403838    265.977055199    
268.056432822    259.985355177    269.772373718    287.066820971    307.944468397    
257.951620377    248.481323272    245.27552396    232.970046972    242.494087546    
253.817313229    255.531355277    269.008575516    249.735417337    283.674084891    
263.351730616    287.272149094    305.245175721    312.474412276    300.595737417    
336.733130955    347.277358186    354.468236672    339.668212698    326.149176808    
332.821475284    322.387818622    313.453680914    309.401224967    203.785962354    
281.31669927    277.578393656    264.661017928    276.570556196    299.498659598    
292.866307947    306.743056181    299.697216102    356.157330472    353.980090773    
354.962792427    329.128377675    333.520410844    326.819442585    348.12226727    
353.036849876    318.840463352    274.697224181    269.738688481    212.027316877    
218.230913129    247.857151244    186.751462468    133.25507034    129.310243113    
301.921000006    311.635553139    310.989091257    266.569174423    260.452551294    
364.445151678    356.378772691    349.36965625    244.410375064    377.52302214    
272.320111604    279.87521612    335.334111594    240.949336913    42.600516606    
93.9493572381    317.457339719    345.277023068    348.389250509    345.299829738    
350.737574717    350.281049026    343.434859664    344.811687444    385.592142404    