Title = " tecplot file for 2D Cavity problem " 
variables = "x", "y", "z", "velX", "cellCentroidY" 
Zone T = "nmesh0" N = 283 E = 933 DATAPACKING = BLOCK, VARLOCATION = ([4-5]=CELLCENTERED),  ZONETYPE=FETETRAHEDRON 
0.23838104958    0.23887904452    0.3    0.2    0.13732468972    
0.13702752594    0.1    0.41389108349    0.5    0.5    
0.5    0.5    0.5    0.40988493213    0.5    
0.3402389744    0.4    0.33977021174    0.42808287283    0.5    
0.40981870864    0.5    0.39867108893    0.5    0.5    
0.5    0.5    0.4122946649    0.5    0.5    
0.5    0.41138953425    0.5    0.5    0.5    
0.39948298875    0.5    0.42833647092    0.5    0.42305210233    
0.5    0.5    0.5    0.5    0.4303612709    
0.5    0.41225287318    0.5    0.5    0.41605117917    
0.5    0.5    0.42213836312    0.42351570725    0.41966915131    
0.5    0.41829329729    0.5    0.5    0.41874924302    
0.5    0.41797992587    0.5    0.40572524071    0.5    
0.41678509116    0.5    0.41768452525    0.5    0.41643862762    
0.32678941768    0.4073561728    0.5    0.40883976221    0.052885035648    
0.023724900559    0.051427559857    0.17285842098    0.27771398425    0.22454390791    
0.28258649104    0.32601154681    0.14581726186    0.10116890073    0.10731705885    
-0.0029370042708    0.050372379595    0.28691256046    0.28398631369    0.15019595875    
0.17428602278    0.23516532036    0.13749680461    0.18275566399    0.17420459679    
0.22567240675    0.19867786765    -0.0057675576389    -0.0042448728345    0.22848429558    
0.25836831331    0.32094819056    0.11803464131    0.099178366363    0.052421696484    
0.33511499039    0.29779165983    -0.12163091471    -0.12131308764    -0.070235245477    
-0.17207309099    -0.030813786018    0.33723041415    0.32822196975    0.13884566706    
0.12572585046    0.16471370862    0.23988850923    0.033159035033    0.073618157014    
0.21497009695    0.24030808209    0.056835947699    0.10646627098    0.11013898558    
0.15242388821    0.2280630121    0.2927288115    0.32190140742    0.23332722535    
0.17253126204    0.13184266684    -0.088694609702    -0.11363914089    0.010070850813    
0.29400601983    0.02532113716    0.090107783675    0.0042388816364    -0.054190154165    
0.11259226501    0.053433206699    -0.0044047106057    0.071843892336    0.42067414522    
0.41016995907    0.35672467947    0.42327445745    0.4168253839    0.41278079152    
0.40442427993    0.34714686871    0.3087477088    0.19613178074    0.13125571609    
0.024327076972    -0.017021905631    -0.057339440053    -0.11170014509    0.16530394554    
0.10078687221    0.42512446642    0.30595946312    -0.21711791511    -0.20739768445    
0.22574973106    -0.15493921936    0.091971047223    0.051554777552    0.17720426619    
-0.11663387716    0.012834740803    -0.10988757014    -0.01630297862    0.086958691478    
0.15989041328    0.32450819016    0.3855291307    0.35243031383    0.31797783875    
0.34692415595    0.2825846076    0.37964245677    0.24450056255    0.33264538646    
0.27569195628    0.32169282436    0.22912324965    0.18004000187    0.12609431148    
0.10304665565    -0.063643850386    0.23749235272    0.13241352141    0.24845309556    
0.33483195305    0.27065211535    0.20131455362    0.24962322414    0.34551140666    
0.32283324003    0.32975903153    0.1760070771    0.20027701557    0.10974547267    
0.33799776435    0.28541332483    -0.083216667175    0.05218212679    -0.075059778988    
0.23129664361    0.17132388055    -0.051470957696    -0.049388173968    -0.091621786356    
0.015866626054    -0.014932824299    -0.08676879853    -0.018017932773    0.06172849983    
0.34120205045    0.29648944736    0.32033136487    0.34095993638    0.23493692279    
0.3339946568    0.337431252    0.30317646265    0.19366455078    0.32498046756    
-0.17285977304    -0.10741198063    -0.12312694639    0.034904532135    0.095074817538    
-0.13426069915    0.26247379184    0.15041914582    0.27890083194    0.034384440631    
0.031621340662    0.10883488506    0.19725997746    0.15706507862    0.16764962673    
-0.087462089956    0.032193314284    0.17235597968    0.13648201525    0.077900789678    
0.011335023679    9.8228352726e-05    -0.025411091745    -0.023622816429    -0.10608942807    
0.057037685066    0.083878189325    0.079051792622    0.14986515045    0.051468979567    
0.11585833877    0.21100731194    -0.019574807957    0.15591920912    0.2590701282    
0.23631863296    0.23649072647    -0.057597957551    -0.02923585847    0.23062975705    
-0.065843753517    0.02828043513    -0.0086802467704    -0.14882944524    0.02622140944    
0.1131433621    0.2118780762    -0.1170893684    0.17542864382    0.35791161656    
0.26265394688    0.18562467396    0.089362457395    
-0.5    -0.41472343476    -0.5    -0.5    -0.4168881557    
-0.5    -0.5    -0.5    -0.5    -0.41889555576    
-0.41819843412    -0.5    -0.41564889515    -0.5    -0.5    
-0.41762424381    -0.5    -0.5    -0.5    -0.4153699218    
-0.5    -0.5    -0.5    -0.5    -0.41820653554    
-0.43047637182    -0.5    -0.13484758004    -0.13423285275    -0.2    
-0.1    -0.2351196651    -0.23500892398    -0.3    -0.33893131854    
-0.33857438087    -0.4    -0.43015589406    -0.2691570305    -0.28728654981    
-0.25331445445    -0.33938811823    -0.33336120628    -0.17854612253    -0.28406116366    
-0.26233258347    -0.22326628864    -0.17245734639    -0.16364435619    -0.19110110402    
-0.24614081152    -0.16351815207    -0.39587140083    -0.36506685615    -0.38906952739    
-0.32786795189    -0.38847386837    -0.3318451791    -0.083182727769    -0.051343418658    
-0.066395926384    -0.30245664716    -0.23140587141    -0.17034709454    -0.11599105206    
-0.38629558682    -0.065782109139    -0.077823087573    -0.033454306713    -0.034165135222    
-0.066835816451    -0.29703965783    -0.0040942735631    -0.061955809593    -0.5    
-0.42616629601    -0.5    -0.5    -0.41328206658    -0.5    
-0.5    -0.5    -0.5    -0.42190292478    -0.5    
-0.5    -0.5    -0.41540122032    -0.33099918884    -0.5    
-0.40987175703    -0.5    -0.5    -0.41157954931    -0.32740004453    
-0.5    -0.40398362279    -0.5    -0.4120400846    -0.5    
-0.40840107203    -0.5    -0.5    -0.40350434184    -0.40809574723    
-0.5    -0.4003213346    0.069500341409    0.12194701284    0.14959785779    
0.14674283036    0.052685834515    -0.31047663093    -0.26185631912    0.13552636399    
0.074683457613    0.043906056781    0.10542630627    0.14316341544    0.044617960863    
0.047655455768    -0.0063659954075    -0.1449067291    -0.18103766441    -0.24149730754    
-0.15670896114    -0.22973869136    -0.22138518095    -0.17256053992    -0.11397877408    
-0.10838096589    -0.054455167323    0.029577167705    -0.033454676648    -0.046196698417    
-0.11779171228    0.080155737698    0.17115314305    -0.10996957123    -0.13880529044    
-0.30303242803    -0.34019988404    -0.30195197463    -0.018677968532    -0.19487705827    
-0.11714138836    -0.41352432966    -0.30768674612    -0.15878117085    -0.14694330096    
-0.080692149699    -0.42989856005    -0.38929644227    -0.40977177024    -0.40172451735    
-0.41830760241    -0.41255611181    -0.5    -0.5    -0.40022647381    
-0.4243209064    -0.28911292553    -0.0047878199257    0.043587331737    0.077164627612    
-0.30981233716    -0.040882781148    -0.38227200508    -0.43266810545    0.20481482148    
-0.29607358575    -0.20665049553    -0.17221266031    -0.3678817749    -0.10168319196    
-0.021623669192    -0.30754390359    -0.22287839651    -0.4389718473    -0.5    
-0.36383622885    -0.37153184414    -0.22600293159    -0.33944323659    -0.25078937411    
-0.27347847819    -0.24574446678    -0.34696641564    0.12659868598    -0.2963745296    
-0.31550174952    -0.2367926389    -0.054580211639    -0.011960457079    -0.050696302205    
-0.12296640873    -0.032839149237    -0.3179461658    -0.29175436497    -0.17046000063    
-0.10706669092    -0.061531320214    -0.11558044702    -0.20518957078    -0.18870469928    
-0.31759625673    -0.30925294757    -0.089378364384    -0.23331569135    -0.35935878754    
-0.28438603878    -0.28654807806    -0.28335988522    -0.1934465766    -0.32101249695    
-0.09070212394    0.0042566973716    -0.090090565383    -0.023071698844    0.042389310896    
-0.21549329162    -0.14089852571    -0.047051247209    -0.059011764824    -0.4055737555    
-0.29389184713    -0.16341674328    -0.19264043868    0.055856585503    -0.0011573025258    
0.13222438097    0.055268414319    0.18168850243    0.14440822601    0.057861108333    
0.17148178816    -0.12153756618    -0.18636290729    -0.35251045227    -0.32935139537    
-0.28916287422    -0.31939277053    -0.3455041945    -0.28313827515    -0.334821105    
-0.15922167897    -0.18784360588    -0.0091421063989    -0.060292810202    0.0080390023068    
-0.17641739547    0.064655043185    -0.025855921209    0.026505835354    -0.0041476576589    
-0.029815310612    -0.088426396251    -0.27347123623    -0.080107726157    -0.082342945039    
-0.15168713033    -0.16312615573    -0.15404245257    -0.22678218782    -0.23009064794    
-0.39380568266    -0.1328112036    0.10398437828    0.15427291393    -0.23815740645    
-0.1916076839    -0.15670755506    -0.092203900218    0.045901052654    -0.17033040524    
-0.15543183684    -0.1397421658    0.14277984202    -0.2401958853    -0.43918856978    
-0.075726859272    -0.34643083811    -0.12685717642    
-0.41525380821    -0.5    -0.5    -0.5    -0.5    
-0.4181531734    -0.5    -0.033012205004    0.0    0.048665079525    
-0.049503663441    -0.1    -0.14785542545    -0.13389429422    -0.2    
-0.5    -0.5    -0.41768659873    -0.43009226427    -0.24638476548    
-0.23459178214    -0.3    -0.33841613399    -0.4    -0.34429606689    
-0.43002168133    -0.5    -0.5    -0.41348763454    -0.5    
-0.5    -0.5    -0.41421850615    -0.5    -0.40331670293    
-0.5    -0.5    -0.5    0.04352171725    0.0014200225705    
-0.038819310195    -0.00044234021313    -0.095113427316    0.035621742557    0.087716415524    
-0.33538962859    -0.3588129282    -0.32683066421    -0.16500223786    -0.12508416176    
-0.13572168125    -0.07452854626    -0.392544806    0.047403976321    -0.09749083966    
-0.19413069007    -0.2948076725    -0.2937422056    -0.019241548604    -0.069024145603    
-0.1328558622    -0.14165526628    -0.24095710882    -0.21453258395    -0.23763839964    
-0.19612362981    -0.32669339602    -0.38546550274    -0.41621550818    -0.5    
-0.5    -0.2429433316    -0.23363482805    -0.26598888636    -0.34379394928    
-0.39902687073    -0.43420964528    -0.3290328843    -0.27435973287    -0.23021076868    
-0.33128374651    -0.26158470247    -0.15864528358    -0.18543876708    -0.2452711774    
-0.2462602665    -0.15239981667    -0.38807472587    -0.5    0.1568161242    
0.11003278196    0.11235836251    0.060923871281    -0.38747996092    -0.5    
-0.11262059943    -0.16715888679    -0.061958011744    -0.12288366258    -0.0010336220888    
-0.059405729175    -0.064562959288    -0.055645185549    0.011424860917    -0.27844178677    
0.054057149291    0.11398679018    -0.5    -0.41681706905    -0.5    
-0.5    -0.5    -0.40549471974    -0.5    -0.5    
-0.42226782441    -0.5    -0.5    -0.5    -0.5    
-0.40872132778    -0.5    -0.5    -0.40992242098    -0.5    
-0.5    -0.5    -0.41411885619    -0.5    -0.5    
-0.40393692255    -0.5    -0.41568470001    -0.5    -0.5    
-0.41329279542    -0.40952453017    -0.41247218847    -0.4079644084    -0.5    
-0.40083828568    -0.5    -0.40279877186    -0.40617185831    -0.028198638931    
0.02897882089    -0.017282199115    -0.3322545588    -0.4167073667    -0.3047901094    
-0.1657396853    -0.32568281889    -0.17042070627    0.01528623607    -0.087718769908    
-0.037241317332    -0.21570144594    -0.15429315132    -0.24549875396    -0.27613860369    
-0.3525814414    -0.42588192225    -0.4174105227    -0.5    -0.40915501118    
-0.40268585086    -0.41282039881    -0.43302878737    -0.5    -0.41892081499    
-0.412114501    -0.40940052271    -0.41219487786    -0.33317422867    -0.34930312634    
-0.42166528106    -0.065370410681    -0.27817156911    -0.11588711292    -0.17153769265    
-0.24706466496    0.024736555293    -0.42947751284    -0.22211249173    -0.34454509616    
-0.28504756093    -0.17986905575    -0.31761115789    -0.34880107641    -0.16345860064    
-0.29515373707    -0.33055222034    -0.41262426972    -0.32144552469    -0.2742189765    
-0.088732130826    -0.10657566041    0.066469952464    -0.011472829618    -0.38502970338    
-0.22623543441    -0.33554247022    -0.30286681652    -0.34361302853    -0.31344205141    
-0.1450894922    -0.35071828961    -0.35103026032    -0.24961166084    -0.12607358396    
-0.12454099208    -0.33957964182    -0.16438780725    -0.22939564288    -0.33070063591    
-0.27138850093    -0.30715960264    -0.24472482502    -0.39372223616    -0.3359747529    
-0.073836684227    0.0098743904382    0.056125931442    -0.028588078916    0.14758144319    
0.028005558997    -0.16383069754    -0.25207874179    -0.27735134959    -0.24673835933    
-0.31759667397    -0.26691731811    -0.24892762303    -0.33338880539    -0.2534519434    
-0.36514228582    -0.32863172889    -0.20166486502    -0.109052293    -0.15757079422    
-0.062301639467    -0.082985728979    -0.070507861674    -0.022462427616    -0.29257264733    
-0.29956531525    -0.13513913751    -0.19294695556    -0.25116205215    -0.16998247802    
-0.31702208519    -0.2319624126    -0.2208904177    -0.14529950917    -0.33426964283    
-0.30239072442    -0.19005827606    0.0038494174369    -0.10398387909    -0.057664580643    
-0.031522978097    -0.052825815976    0.034136377275    -0.10202209651    -0.067244969308    
0.075998753309    -0.23739098012    -0.34029144049    -0.25719451904    -0.20834755898    
-0.13266196847    -0.21620352566    -0.14223906398    -0.37222021818    -0.044534139335    
-0.12888933718    -0.1453962326    -0.15289129317    -0.42512151599    -0.21702951193    
-0.038680508733    0.15245999396    -0.2627030313    
399.672571395    399.868610093    399.591242403    399.554613962    399.847614491    
399.594523645    399.843763384    399.699681375    399.247038153    399.466622742    
399.60125391    399.841818104    399.562800142    399.902299995    399.935437021    
399.718070986    399.734513293    399.929282322    399.700969722    399.876980587    
399.646938923    399.826347424    399.915679158    399.742157578    399.963172909    
399.981040931    399.904197302    399.508614461    399.726741792    399.037133689    
399.696735865    399.846925723    399.478955289    399.804651611    399.912687807    
399.811740278    399.980434272    399.900052963    399.984448915    399.8926442    
399.813283867    397.364232547    398.900535339    398.893613282    398.33941737    
397.505170124    398.253323658    397.981090273    398.994549713    398.60617667    
398.919265322    396.660299172    397.954157603    398.093867959    394.914766162    
396.908567102    396.560373805    399.485133355    399.778768193    399.870531215    
399.550035515    399.767863507    399.861305596    399.418437357    399.90254786    
399.864665213    399.907651892    399.50353654    399.575504606    399.553725755    
398.03378161    397.391235255    395.223438226    396.363207363    399.492343163    
398.643705275    398.888332598    397.084209237    399.243826978    398.430899533    
399.53724166    399.146090883    398.855949539    399.722918515    399.673730084    
399.224416918    399.407701395    399.076229406    398.689569427    397.395352969    
399.343819665    399.285895511    399.672869922    399.812415545    399.729723369    
399.401289716    399.445486497    399.342414837    399.254324827    393.97259613    
396.708853939    393.627565277    395.63559417    398.853783555    399.223605936    
398.597453044    398.252794606    396.156807134    395.834518728    395.889264406    
398.145276328    397.156503704    395.468917514    397.986034318    397.045391005    
398.050282547    393.316979619    396.586984872    394.144257276    397.893706631    
396.810196845    399.476071004    399.656786617    398.793340503    398.610063286    
399.763335211    399.003370375    398.644017264    399.629013238    399.308423171    
399.29546932    398.982047402    398.756116801    397.956199694    398.932991978    
398.669528828    397.28617329    398.256776667    396.962367399    397.741113042    
398.502328177    396.35263004    399.114642439    398.932782554    398.601211645    
397.940567146    394.456276883    396.434011982    396.259760561    397.165337415    
394.572426717    398.246960459    399.216967545    399.388315282    398.643886381    
398.886659124    399.102584992    397.798143798    398.879732233    397.870362435    
399.123128137    397.491764136    398.846412364    397.836631202    397.434157111    
399.423017531    399.677374415    399.794849805    399.177796357    399.707053403    
399.295644027    399.188608832    399.336796911    398.856085023    399.435905917    
399.150182106    397.957442781    398.493814508    397.705854006    399.422053213    
399.61053131    399.727778604    398.980570455    398.454987212    397.919328736    
397.507814273    398.652560681    398.602161536    398.885347385    399.281014099    
399.619708428    398.714597148    399.215838566    397.939415502    398.546355755    
397.547495258    396.676770371    396.931144587    398.136918085    398.79374405    
398.269186292    397.494212782    398.886812272    398.433880422    396.807604592    
396.790489627    391.210806702    391.10141352    384.875420164    382.71545176    
386.408379831    399.265164674    399.557736383    398.648171533    399.450943735    
398.433865843    399.265193129    398.547755719    395.565259422    392.885429133    
388.07043051    382.813724425    386.350920721    392.879536735    383.619039045    
390.904975388    391.549910996    393.451659618    391.11099315    387.131241694    
377.887686478    395.756417805    397.242303034    396.697896377    394.820193013    
398.3166391    399.084184295    399.177731773    397.978210054    398.184177192    
398.437023649    398.480591914    396.954144778    397.005112498    396.182132293    
397.198447833    395.238472833    396.337979285    392.533859018    391.235639904    
394.999041543    394.383528452    390.272090021    394.622308862    381.169176834    
380.535172024    387.873975403    391.754505045    394.461526361    395.242595981    
393.94348368    398.280933432    398.447918917    396.173863223    396.444511018    
397.647521048    370.451148178    390.311008929    393.775147856    393.432850031    
383.245553207    376.255902623    388.938275752    359.340117216    394.103491609    
395.303650318    391.556802895    397.505757193    398.695070814    398.598337135    
397.738261431    395.735434965    397.457101259    395.548336182    395.316000226    
388.717772459    387.45073532    392.330501257    384.481470622    371.758974454    
386.872641718    388.922576221    392.25585665    392.392205375    397.293883483    
398.52977877    398.283065519    396.611504679    393.844039579    393.201641058    
399.018640216    397.91161591    399.469364622    397.129700168    397.750660663    
398.876710265    395.566537492    395.983602295    398.573674769    399.666335332    
398.69451823    399.568482788    399.259236835    399.272085013    397.593169832    
397.696892814    396.859006002    399.226691667    397.090137195    399.634479406    
398.53423231    397.189730146    397.149299312    399.16569091    399.628570023    
399.106884276    395.868260796    397.116281105    394.99631619    389.789862858    
394.115868428    393.311655838    398.239543799    398.389560187    394.921780825    
391.475017476    397.574109393    396.403410891    396.610677836    397.416918524    
388.347376085    396.670337439    389.421173997    387.613081387    398.35091336    
397.816045799    397.671065958    398.740269798    397.907479237    399.766632276    
399.749698582    397.489364337    399.6849307    398.765265198    399.287145697    
399.04330051    397.461239403    396.745845796    396.518137822    395.370457556    
395.857631441    397.191916867    396.868062822    398.12852272    398.692784912    
398.615096095    397.443522779    397.469704406    396.24005327    396.019908099    
392.807119694    397.923864426    397.1286455    395.944439294    393.374597976    
398.531474005    396.55680314    394.687929987    396.189069518    398.763064653    
394.586034045    398.46265622    393.092545283    397.209065719    395.528397713    
393.147700546    395.955601971    396.107842529    392.279691014    392.91730673    
397.399688519    398.656325638    393.832741436    398.642055374    393.718783818    
398.762552958    396.855770552    397.824836865    397.384471852    394.318131029    
398.7736354    393.385418489    398.297307818    395.443047042    397.915536905    
398.992344156    399.289904156    395.368666429    399.594012665    396.234367567    
399.506061868    398.745460226    399.118189454    398.762510826    397.988994254    
397.98353759    397.242723163    398.582067711    398.723435166    399.583977799    
397.698179536    399.837426395    399.636142956    399.850755738    399.237260643    
398.743245897    399.190719735    394.158056883    394.757210536    392.157368736    
392.46003153    388.960587224    380.295539602    397.206538789    397.530253117    
396.084366247    398.04000029    399.234110127    399.061662046    398.255292484    
397.036411178    396.560007308    397.674795604    397.261376592    384.218120746    
384.562050349    397.056829328    396.079025547    395.817058243    399.515245337    
399.712610498    396.142596494    396.872993527    399.750278642    388.144391323    
391.647450723    388.800317884    390.303082421    391.940484758    394.877518232    
395.425631789    392.432341051    391.145755098    395.173101231    396.972151099    
394.029631088    388.648392642    389.995635623    379.541956371    382.455484152    
390.295385583    391.687087158    375.312775619    395.596445944    377.073730239    
396.294047333    394.359161772    389.456087799    393.687396094    395.527992888    
394.885365024    396.333385514    396.547679971    396.225420067    398.253672582    
393.782314089    391.776096319    394.860651232    396.912358946    398.761946057    
399.372842105    399.738128627    399.61375005    399.181915112    395.919918863    
395.965146003    398.491900188    396.066059862    398.546037045    398.751002657    
398.296566057    397.221571418    396.159899929    396.142888849    398.154719798    
397.797490948    394.815109754    396.679740241    393.58809432    392.917309556    
399.300794243    398.813172046    397.260267089    396.834141026    397.11072528    
396.903053531    395.329279286    395.779275064    397.217830251    394.690814408    
392.720350367    395.27940296    394.326062647    394.393774124    392.688653447    
393.516875968    395.022134216    396.426289768    395.275773566    394.04030589    
396.970825642    394.930876714    396.156588065    395.875553242    396.10326142    
391.669455642    392.244546073    394.705650506    393.393973352    394.698465897    
393.717492231    394.459738852    391.150181035    392.052467076    390.760659692    
397.174975074    395.941796637    396.998141706    396.060562165    392.863343119    
395.115882677    396.026077961    394.079285062    392.549791709    392.097500434    
392.185829881    390.424901622    391.210366872    395.110839023    392.706619205    
391.78542218    391.613651561    395.212326145    393.097840112    392.889025765    
390.547308256    378.901832655    395.200880291    397.520811323    389.014577375    
397.119955127    388.881167828    382.262643156    380.55310457    370.222731296    
379.322214428    386.60812122    379.748500113    387.000715785    385.514323798    
388.667269735    391.382380739    393.549717549    392.506100156    392.451106458    
392.370141945    392.713045344    392.44180578    397.578825631    392.572604632    
395.30739501    392.924553041    392.503808167    389.667296255    388.069210629    
382.856943358    386.716403421    387.465457589    390.854546848    390.624199675    
387.873731027    383.715351408    375.288890683    380.261776586    384.656207138    
381.751233172    377.488317177    384.585518916    381.107077479    371.99626437    
384.01304175    386.863327661    386.905127586    390.546836173    389.119699982    
391.147699129    380.832810806    392.450711912    389.703656435    391.148193021    
393.983855067    396.356837    391.661623658    392.899983863    397.280207574    
396.817121676    395.296276436    393.695232517    394.348780551    394.585890704    
393.563562604    392.708025927    391.06089017    392.594787282    391.801770282    
394.784846125    393.445177332    396.982840331    397.976254769    385.744001595    
387.84421373    389.508889234    391.373922805    391.089279027    392.7300702    
392.53391388    390.842325634    389.964245183    391.761556849    389.179472924    
394.875091745    395.555201155    395.547505887    389.875323788    392.753282953    
393.681131085    387.894014518    393.143386421    392.102902496    372.494811466    
369.688595021    363.424690004    367.834043021    372.788089674    385.202540559    
377.609163034    371.158518051    370.090164415    376.093050081    380.512747222    
377.85710651    358.011562936    369.435476067    364.019745779    371.130378523    
386.269965045    387.398435215    391.428130146    392.142700824    392.056519055    
389.288899944    381.792017569    383.576740849    388.36582828    376.703442634    
379.395887836    373.501131313    397.035024785    389.235731783    387.716587773    
378.859700629    384.460792345    386.5797163    389.458124246    389.824212687    
390.824319708    391.584695549    388.670588702    383.970932263    386.495061453    
390.59770539    389.048449591    376.023556967    372.548535017    380.045471284    
372.981201203    382.705330108    350.890847315    341.044995874    349.565135174    
352.241231077    386.778980975    391.201304197    384.395818011    382.588557063    
379.666282933    385.00418113    381.136256268    380.737021969    387.354627639    
382.936527487    387.722150951    391.253951903    388.508778362    386.355434106    
386.769620306    382.485581817    388.327340269    388.305354704    381.849822658    
387.664592254    390.598115546    395.465998229    392.132930431    390.45172287    
395.634853121    392.29285238    393.789122074    384.435093978    391.319678995    
391.820322935    392.339403567    389.526779779    387.636204307    390.187427805    
383.660562633    387.295297043    384.03481099    384.280965744    391.071783133    
391.293234667    390.86901916    387.552711236    387.285487765    389.426920978    
386.379924702    389.762643986    387.906811354    387.267197536    388.310429303    
386.208926729    391.164315109    392.17008596    391.903825226    388.37562832    
388.56214589    391.217591767    390.611140517    378.84677649    381.148301009    
384.230803035    382.13283866    382.205924733    379.433708003    360.741751252    
363.856613797    367.78439681    373.025511581    376.178562078    371.278123422    
380.843668722    384.991901452    389.418383149    387.117731014    386.282387822    
380.845799849    379.058327656    377.906848758    379.38205246    384.676744728    
390.012092692    382.694841495    360.697274566    356.189248328    363.633634046    
347.99747692    338.176103745    345.274843368    346.037611003    343.884576248    
351.36693573    360.125254974    364.121283952    375.808838248    350.781954685    
365.369223553    361.013147576    373.81424413    371.865232636    366.471494608    
356.62032772    356.625832816    354.742380828    359.71717891    366.968640267    
360.690485043    352.945417622    388.023791948    383.499599129    360.475735481    
353.688263501    352.622037402    378.484131289    377.71654321    372.969568625    
381.459858281    378.940909157    383.050714844    377.252108535    378.636479949    
384.215895385    381.209182365    386.737881473    383.857671642    389.261385459    
384.584044948    382.457170663    379.735134115    393.333322182    394.175744246    
398.533299329    398.209157542    375.800425813    384.899304123    386.591389146    
384.413820983    376.656791539    367.668251695    367.294495788    372.668706736    
376.467824226    367.193133195    340.173022677    326.230711424    328.728542747    
347.079227679    321.162163112    355.859545899    357.338945815    370.570588144    
368.103257115    366.856224925    325.929124103    346.431737306    354.744975545    
330.011600638    349.811423545    311.581852628    390.067930631    380.678783613    
384.017383043    382.447969567    383.366678412    386.107629727    384.570396167    
381.615032039    384.794276618    372.662286478    377.706305402    373.119835617    
368.100441837    370.632576046    375.032104219    378.986862666    380.32070684    
377.46944153    370.453582996    365.750968508    367.551088236    370.292118657    
361.929001756    362.718101288    365.777062833    373.218688513    374.614325566    
367.142262854    364.291185966    362.540401497    367.75881839    369.517808314    
374.452426286    367.87311019    377.93633556    365.45641675    366.726284421    
369.314158887    372.53453669    370.709430527    373.726798808    365.394946013    
362.177635904    363.535236939    376.127949815    364.951878625    354.942811296    
379.014462203    376.52228945    374.584750701    376.606556178    373.51230725    
369.998908736    372.349657415    367.303409144    398.696783887    397.77755157    