Title = " tecplot file for 2D Cavity problem " 
variables = "x", "y", "z", "velX", "cellCentroidY" 
Zone T = "nmesh0" N = 265 E = 933 DATAPACKING = BLOCK, VARLOCATION = ([4-5]=CELLCENTERED), ZONETYPE=FETETRAHEDRON
0.42916656098    0.42842150611    0.4    0.34051337454    0.33600985395    
0.3    0.5    0.41584150354    0.5    0.5    
0.23931697742    0.23159534999    0.2    0.5    0.5    
0.41565943951    0.5    0.41248339184    0.5    0.5    
0.5    0.39991586198    0.5    0.5    0.41575913228    
0.5    0.5    0.5    0.0    0.051788512588    
0.048302279937    0.1    -0.036539552942    -0.1    -0.032957545583    
-0.13666224726    -0.13378452454    0.43150808053    0.13770463614    0.13218280363    
0.5    0.5    0.41894367337    0.5    0.40994277596    
0.5    0.5    0.33714348864    0.42452907562    0.5    
0.5    0.5    0.40456363559    0.5    0.5    
0.41083729267    0.5    0.5    0.41752371192    0.32544157873    
0.40966212749    0.41724288464    0.5    0.5    0.41441592574    
0.5    0.40851894021    0.5    0.5    0.5    
0.40686893463    0.5    0.40083095431    0.075355291367    0.045580776326    
0.054106608372    0.16165715167    0.2552965064    0.21618300676    0.032099205532    
0.12681150436    0.075273913793    0.13917322365    0.24049588671    -0.071421034468    
-0.081540942192    -0.064321370558    0.22001201334    0.26720950007    0.32631998995    
-0.031523656171    -0.024988340214    -0.075540573349    0.089801393449    0.098131755548    
-0.013383025303    -0.014308815683    -0.12233015178    0.199893713    0.32413241278    
0.027520179138    0.071248449385    0.13124883421    0.05497633249    0.060427083065    
0.070297665894    0.13032715471    0.025589508627    0.057757489939    0.10916212201    
0.11208969134    0.15496959329    0.23030810958    0.28165134788    0.28492171403    
0.32972420545    -0.16331023844    -0.17706693709    -0.12861982796    0.011399649084    
-0.053748317046    0.17415370047    0.23624265987    0.23184024665    -0.00076911469271    
-0.10732157528    -0.060991029216    0.0074519892223    -0.02876667971    -0.058950658888    
0.29951098561    0.32514679745    0.43463635445    0.41288724785    0.4183511734    
0.5    0.5    0.40529754758    0.404743433    0.41125491261    
0.42098331451    0.41994029284    0.41142642498    0.31229171157    0.15790265799    
0.17538171111    -0.13780000806    -0.0092536676675    -0.16023084521    0.34415650368    
0.11961134523    -0.030030202121    0.30331286788    0.1236821264    0.22944653034    
0.34785842896    0.17347851396    0.20889785886    -0.072128616273    -0.042051788419    
0.017661919817    0.31296682358    0.38542744517    0.36976534128    0.35841032863    
0.34836876392    -0.076444171369    0.12949699163    0.046723969281    0.3537606895    
-0.08715891093    -0.047226355567    -0.14679513415    -0.089128628373    -0.1486280825    
0.043514356017    0.27539527416    0.20948413014    0.31029897928    0.36348101497    
0.27479037642    0.02540740557    -0.1001540646    -0.083267346025    0.031862605363    
0.15861544013    0.047332841903    0.16273595393    0.15969090164    -0.098757520318    
-0.026364712045    0.32779544592    -0.12082306296    0.23224464059    0.23529757559    
0.28961977363    0.31985118985    0.33092859387    0.32444682717    0.27762913704    
-0.039546322078    0.22624154389    0.16945490241    0.06426165998    0.03918877244    
0.13161307573    0.22722111642    0.10399028659    0.1569955647    0.20344738662    
-0.0067209075205    0.014297979884    0.040696881711    -0.03237491101    0.033566184342    
0.056703593582    -0.049583990127    0.077206209302    0.19898495078    -0.04975425452    
-0.14424198866    -0.14361406863    0.27723261714    0.29425120354    0.32784238458    
0.28737694025    0.30145633221    0.13262072206    -0.089738331735    -0.20868697762    
0.14505885541    0.1281991899    0.24076008797    0.16263964772    -0.089620292187    
-0.093031041324    0.12223561108    0.0158755593    -0.032366167754    0.079498335719    
-0.11982141435    -0.14509645104    0.22022998333    0.13536153734    -0.09914444387    
0.0094026327133    0.099765390158    0.042061634362    -0.18367117643    -0.058467663825    
-0.038092400879    -0.099340446293    -0.019804503769    -0.094359830022    -0.024417564273    
-0.12341775    0.015170675702    -0.058520920575    -0.0041930982843    0.44331139326    
0.28096622229    0.23233468831    0.12907977402    -0.019950056449    0.30142802    

0.5    0.429596752    0.5    0.4165745512    0.5    
0.5    0.5    0.5    0.40021852449    0.5    
0.41334446407    0.5    0.5    0.13852409406    0.2    
0.13329818812    0.1    0.23276613717    0.23984721179    0.3    
0.34081689785    0.33702374977    0.4    0.0    -0.035386706556    
-0.031990237213    -0.1    0.05250692366    0.5    0.43123165166    
0.5    0.5    0.5    0.5    0.41476977044    
0.5    0.41058757882    0.049213199433    0.415353217    0.5    
0.42856487181    0.5    0.38986676931    0.33028126457    0.35635510087    
0.41286418147    0.32591989422    0.048207845241    0.025440203026    0.055803920966    
-0.062441547325    0.23105213736    0.28228649497    0.28552613117    0.060016010399    
0.10955008119    0.11338168767    0.15525254239    0.2887300849    -0.068760257322    
-0.075761467218    0.18492367864    0.17639973484    0.23719398748    0.20783288777    
0.0027003096484    -0.056331504136    -0.10925327537    -0.04523981653    0.0074893949164    
0.007421862334    0.13091126552    0.11519511789    0.40556415915    0.5    
0.33694749971    0.5    0.5    0.40817856789    0.5    
0.42218753695    0.5    0.5    0.5    0.5    
0.41822323203    0.32273088462    0.5    0.40112841129    0.5    
0.5    0.41023689508    0.5    0.41237428784    0.5    
0.40551966429    0.5    0.5    0.40188318491    0.5    
0.062263252802    0.035415314138    0.052376288664    -0.0083935976601    0.14406319042    
-0.052787981927    -0.070420141154    -0.079550209737    -0.1695197161    0.17826959491    
0.23811814127    0.15262745436    0.2245508896    0.27014958858    0.32823158508    
0.25766636154    -0.15246265199    -0.20350812376    -0.23243690152    0.1096214503    
0.12253791368    0.10320707411    0.10461747366    -0.0081041377747    0.23199266606    
0.16590942442    -0.13304965671    -0.12737318873    -0.23964649146    0.26088196039    
0.10577746481    0.16450707289    0.43160220981    0.5    0.41754481196    
0.5    0.41627475889    0.27081358433    0.14297755063    0.018277786672    
0.026157518849    0.19208976626    0.31806838512    0.39575985074    0.41790369153    
0.324447623    0.40203583241    0.35532894731    0.36799457669    0.42463803291    
0.39421370625    0.41147202253    0.40688899159    0.29598507285    0.34675326943    
0.23752991855    -0.0076216747984    0.19846518338    -0.19458571076    -0.010382949375    
0.20442558825    -0.00888705533    0.10332142562    0.064577847719    0.36555072665    
0.32162237167    0.32958292961    0.31126359105    0.40195313096    0.2280818522    
0.066371306777    -0.006048885585    0.050669524734    -0.097862228751    -0.057836333107    
0.28596025705    0.36280527711    0.29322531819    0.29386761785    0.27377107739    
0.26993781328    0.32341533899    0.35140454769    0.27131479979    0.051580730826    
0.15089358389    0.30761867762    0.3275821209    0.34828823805    -0.024031469598    
-0.097555346787    -0.00079069216736    0.022327756509    -0.034587264061    0.05027442053    
0.1197059527    0.21250197291    0.03782395646    0.32391750813    0.33522045612    
0.16369615495    0.28740420938    0.19160328805    0.21694687009    -0.037219654769    
0.05316022411    0.058760710061    0.10001272708    0.23456151783    0.095006659627    
0.26174619794    0.29378727078    0.357855618    0.28397116065    0.1805921495    
0.19606357813    0.18976834416    0.32208579779    0.24614353478    0.0026446154807    
-0.068703122437    0.047414053231    0.20232315361    0.14728799462    0.1796207428    
0.07962167263    0.07716075331    0.0047129187733    0.11402367055    0.075854338706    
-0.031002148986    0.1128847003    0.0042603965849    0.22532527149    0.23688864708    
0.34648191929    0.18951381743    0.12777155638    0.076066583395    0.12276419252    
0.089447163045    -0.014708385803    0.16222573817    0.26129713655    0.026923459023    
0.043773494661    0.062003210187    0.024648226798    -0.0056538614444    0.081637457013    
0.16411808133    -0.021241758019    0.20794272423    -0.070242129266    -0.02158492431    
0.14523732662    0.11158268154    0.22169439495    0.43022921681    0.2766187191    
0.197726354    0.1298456341    0.26909923553    0.22286942601    0.13790594041    

0.42793796214    0.5    0.5    0.5    0.39869486687    
0.5    0.3    0.33954888182    0.33729795577    0.4    
0.5    0.41140110409    0.5    0.41649616432    0.5    
0.5    0.5    0.5    0.41390045096    0.5    
0.41683809598    0.5    0.5    0.5    0.5    
0.41686231736    0.5    0.43263315932    0.5    0.5    
0.43218772171    0.5    0.41719225542    0.5    0.5    
0.41462228214    0.5    0.5    0.5    0.41553842165    
0.42971742824    0.5    0.39461782575    0.25823932804    0.21887886524    
0.23313293902    0.16526434067    0.5    0.39658492804    0.34025933377    
0.32777533286    0.22544000624    0.27084487677    0.32885534463    0.1450578912    
0.17947740853    0.24033164112    0.15304269004    0.38653129339    0.5    
0.38591915369    0.38540664315    0.32582332107    0.10549143739    0.16132470965    
0.24048687965    0.26810845733    0.23606320041    0.14793464846    0.046792553739    
0.11326169968    0.050671573191    0.30213809013    0.39553371072    0.33887500709    
0.5    0.32333626661    0.32687551764    0.35387095809    0.14345253318    
0.075629703701    0.045932745048    0.13620338323    0.10595417938    0.32948522844    
0.3870999217    0.5    0.22436354054    0.27786177397    0.28234629154    
0.053796234592    0.11474210024    0.14697752401    0.17156606913    0.23504228926    
0.30274164677    0.23986469613    0.24184870647    0.1555070281    0.17247740856    
0.5    0.41492205858    0.5    0.5    0.5    
0.42031297088    0.5    0.5    0.5    0.41238203645    
0.5    0.5    0.5    0.40431883931    0.5    
0.5    0.5    0.40948286653    0.5    0.40513393283    
0.5    0.41588512063    0.5    0.5    0.5    
0.41374370456    0.5    0.39857259393    0.5    0.40931418538    
0.40453821421    0.5    0.2882578373    0.23814801874    0.15958067775    
0.2    0.1338315988    0.049918755889    0.0837681517    0.20824097097    
0.30531173944    0.25303474069    0.13202397525    0.39901018143    0.41640809178    
0.5    0.29266831279    0.42102536559    0.41608563066    0.22703492641    
0.285489887    0.20950149    0.11633669585    0.39578789473    0.42512735724    
0.33843892813    0.4051745832    0.40359783173    0.41507530212    0.36995971203    
0.41078492999    0.38198536634    0.38756379485    0.052292995155    0.3114284277    
0.43017831445    0.33389627934    0.12092830241    0.24348624051    0.42333212495    
0.41912767291    0.5    0.5    0.39003032446    0.5    
0.42958766222    0.19342458248    0.304577142    0.27183353901    0.19242742658    
0.18705484271    0.052092600614    0.11417367309    0.065062306821    0.30914595723    
0.31712794304    0.31000220776    0.21818335354    0.34207472205    0.43335348368    
0.28269585967    0.28414472938    0.35181468725    0.32898157835    0.38097414374    
0.13685636222    0.086622461677    0.1615049094    0.13274617493    0.34363538027    
0.35594251752    0.099046066403    0.163947016    0.086114391685    0.33446398377    
0.33370113373    0.29367023706    0.23530095816    0.34298023582    0.19563245773    
0.10158551484    0.17785108089    0.1284172684    0.26147404313    0.1915037483    
0.30612745881    0.27133256197    0.23009197414    0.22885876894    0.26697871089    
0.30619335175    0.27146923542    0.35917812586    0.30139288306    0.21038195491    
0.33457097411    0.24057671428    0.17605555058    0.23412257433    0.19620914757    
0.29424887896    0.14954343438    0.19721028209    0.079760968685    0.16908699274    
0.23705966771    0.2424338907    0.26289540529    0.17086197436    0.35016521811    
0.099740616977    0.13713715971    0.25277805328    0.18298453093    0.1989158541    
0.094147279859    0.08092341572    0.21341387928    0.21491414309    0.3158211112    
0.12354470044    0.052918769419    0.023828176782    0.21636866033    0.15856590867    
0.31263998151    0.12526865304    0.099927298725    0.38276821375    0.19240835309    
0.43946272135    0.3662661612    0.26383394003    0.16025471687    0.37004882097    

282.804330894    147.510163657    159.256066695    235.426897031    195.282550347    
398.696790996    396.746284762    391.097386672    399.502506097    398.239014693    
187.002334332    203.463390541    399.543678796    398.791842842    209.053975555    
126.051063443    250.651060779    365.561872666    271.486020321    221.135856252    
221.983085321    342.533261879    263.181187319    197.315668823    280.531980155    
367.332462184    126.343885593    244.84223794    166.190601143    315.793117822    
235.664452733    365.693271469    373.57136252    340.427392643    373.480255504    
351.5639506    397.099645336    398.474087076    398.502865784    398.971057779    
398.321362405    398.565661588    398.233273286    374.123716387    390.450537903    
375.006596014    357.094614391    389.820893771    366.188549033    383.049687319    
392.237043531    387.716748683    390.416324331    397.327515698    396.824179465    
385.621001925    395.238144975    390.451496496    381.254279316    360.840845124    
392.647142606    396.319027434    394.145915111    395.167780798    385.230868452    
397.556355477    396.752111237    391.939122664    395.572885664    394.122284685    
394.081098093    388.665738485    160.770154326    68.0295251678    318.075791837    
220.692181427    58.5182441732    65.4773979467    22.4250832529    48.0282477016    
103.43676869    215.528991972    202.599611942    278.313192144    323.07724573    
50.161956785    83.8243887091    49.4212018346    22.2489797724    26.5640192718    
52.0562983478    28.8030732884    44.5525940645    34.2430344908    38.2359494805    
32.7829228213    52.334473821    25.080916459    65.5398382021    47.2023434027    
40.2437808034    393.658249342    391.643925786    395.698974015    391.285010067    
397.056915071    397.227970211    385.918192173    378.444167636    388.003076073    
382.599653512    373.514747847    384.963908589    377.109792999    391.481863959    
382.269047063    394.191497112    394.441876204    397.406185269    396.964172975    
394.411425567    392.821790718    56.129589389    357.553643372    311.653449493    
230.052568061    84.193350059    334.262867024    225.918092678    204.757084233    
255.351036594    199.726161532    298.255340963    347.508434332    324.192517487    
354.628487498    387.949279315    374.705178082    370.789254452    389.802221434    
382.729835512    379.940954386    384.58291937    393.728192161    395.603177796    
391.23463195    383.177463464    394.508243233    388.326264406    380.977815304    
391.299534582    385.152465785    396.036302944    391.550113888    390.953068463    
397.673606859    395.145417994    394.339836676    393.097821463    396.074273402    
377.991180617    382.209808356    373.157934772    393.850861183    386.942436755    
390.348256346    378.407978532    379.347924994    388.915328664    373.7562344    
346.001138344    321.467683765    311.651525349    334.965697574    191.901408159    
73.7210034234    115.449291789    122.769770218    76.0533240583    106.329658604    
113.347387936    192.710949677    186.622896717    279.44070008    209.731131568    
207.552346692    104.001288601    62.1674422557    96.4434299162    193.674637883    
345.941518108    298.166407889    200.187097459    103.528233427    203.145621063    
105.378711611    72.2335936716    364.155678754    342.593289379    299.124134279    
302.716092056    297.984165365    309.971859767    308.894948414    99.9826791152    
159.330997404    205.515404522    89.1590011222    37.0867601108    72.2784494483    
40.3278178883    81.0980098937    66.7176796692    99.1443896227    42.8502593693    
80.1970354609    122.279238728    126.66432616    43.6772291161    85.7288438087    
116.538492202    109.222740947    86.5570122538    73.9711852801    25.462455812    
44.439372574    56.4569459047    28.3938795848    117.955187244    64.7274721276    
371.527007917    316.786235781    288.482101077    353.361459076    320.940556391    
313.456545455    241.481532476    380.699630098    365.740950717    311.467547508    
319.867008539    248.796009333    368.034192133    353.517639785    351.127436215    
395.290155244    392.154935002    387.415288708    390.193350879    383.649928575    
388.916568831    382.422221031    374.030364323    386.678600591    375.568179284    
354.863523356    355.968960103    361.397970921    341.802439328    397.898427769    
396.484504445    398.321539036    395.984779753    388.909782712    379.121317933    
385.922351402    385.502019366    375.272952638    361.621416186    376.305034409    
370.893399873    388.196462048    380.960925698    369.925908169    389.835791168    
395.577712606    396.52610854    394.994952319    395.635643207    394.722478822    
387.15918694    391.731460252    389.602293334    392.116700312    388.637359207    
391.514416153    394.048996369    390.719207968    396.175923361    395.319784815    
396.34658585    396.330808769    395.408636653    392.053204185    387.501323192    
385.529888557    380.141987359    197.459435013    121.318456366    106.167656143    
117.768414946    138.269995612    131.82907968    137.156054673    325.660582859    
319.571209979    339.127479269    339.497667596    341.02378595    338.034232528    
317.717422039    314.737873866    297.105344556    217.222961856    262.219653492    
335.984421906    317.173443918    372.68301117    331.272586845    331.006352695    
287.993311976    387.066715339    364.7806605    347.770137476    305.001743581    
261.941152175    314.680695059    388.291837581    377.074754668    201.172397317    
280.199722857    255.279467488    166.585734398    119.802550496    71.6996736897    
32.5821491272    54.5984064936    60.2470537827    94.5361751363    68.4037493471    
47.7019884993    29.8516664827    47.8538703026    80.2678012209    364.081658794    
338.60519307    344.498615952    372.220320339    378.632886572    377.776805411    
357.450292945    382.788060115    388.210986822    387.068003258    393.726057533    
389.260414543    392.1079507    372.970231    387.22393389    379.790088675    
393.211008154    383.697306888    396.129611501    393.468391129    395.432268643    
396.19463295    350.31591343    360.294890046    334.789320976    381.333369254    
353.184952257    360.252417082    349.785772079    357.380335369    386.104459544    
371.984720411    304.138062641    309.231368739    117.749245171    94.5685722617    
79.7400016295    83.3783427385    103.718733336    99.2703811171    218.07495608    
201.282564413    198.215976967    231.964149258    225.28614177    245.293553089    
279.556288894    284.353768569    252.078808946    236.351812573    302.915346061    
366.971221091    352.843127722    296.592830686    263.214386552    284.353327507    
226.93124055    270.199123937    177.13432622    215.501796205    264.145491126    
169.723101346    221.945650766    198.510667611    135.943018029    154.884119318    
125.150238227    143.359348527    239.931803943    274.829771379    209.258282551    
242.075845361    184.420988097    248.480757662    195.70232404    173.661273142    
159.395605484    171.316959377    391.79165803    390.522945752    386.406636877    
396.983147587    398.245247709    395.186859977    397.330744636    392.580426359    
387.242855235    380.828827897    382.510958643    387.915769943    387.130677275    
380.254771266    378.529082325    381.235758697    387.051588785    389.091999917    
392.419523958    389.176924122    391.249315432    388.04698247    388.259136368    
332.394827952    315.063089968    308.416023267    354.683692806    373.357851664    
244.911825189    239.149048802    268.226365819    213.701978549    169.609297677    
209.064951505    174.753202427    249.489722635    280.427306201    285.504480134    
272.171000559    230.622820567    196.304498793    223.997802442    187.271224443    
237.294551972    239.262127578    258.122263833    287.070554638    298.947621282    
312.172576124    263.964834772    287.593582604    304.816768468    290.329031371    
356.090591138    359.937508387    339.345249827    184.869499219    159.281017886    
218.012875018    208.810659213    180.502031641    172.864274981    250.829703959    
269.943684929    379.094574393    369.207808093    383.061367478    378.598831279    
373.882739716    365.83095096    373.138876886    367.143405044    371.865991013    
343.817360944    336.496006689    337.493779322    302.392385368    321.715143008    
323.326178583    334.567780854    198.574842298    207.795303186    172.563781432    
189.343020651    181.80009209    170.773266272    141.164740357    163.533935107    
130.275497999    144.779997903    104.514381997    119.307380477    150.092151969    
214.393075173    188.176104685    164.849052544    172.522069078    264.765537251    
286.267561385    297.611661519    276.944735057    295.476756432    287.65337816    
297.63355179    322.765656622    315.128216516    292.884414788    297.833705513    
179.828854105    160.95306769    159.155366364    148.372639212    160.927710232    
252.23543046    143.096621947    151.173962688    181.344842851    188.604947025    
197.680179641    235.854305893    254.57907655    228.282930168    258.234178377    
361.915855253    367.482027761    376.322928254    367.117141891    375.841145256    
369.927639195    361.832318212    329.406359013    318.536296007    299.208823286    
290.884781107    301.11992762    310.548569765    340.898071317    291.023887959    
321.95531135    340.380670216    333.295003406    319.712247255    329.475582854    
309.199212238    293.586440818    314.402812298    330.474267663    330.634150858    
348.752722546    345.278702894    354.409867733    360.355059819    352.913246137    
335.236183762    377.97442375    382.001102306    379.883729781    382.102165495    
380.808093115    370.458006755    377.144253458    371.115976455    376.501308597    
353.778585134    358.784912603    354.404263146    348.828297974    369.749163198    
366.694865767    370.469497893    373.771861004    374.528480621    362.742665784    
365.249093682    354.552426519    341.611987043    370.832594188    370.553609127    
361.676363852    351.168408755    349.082133505    364.091743377    329.912744988    
274.680543476    363.392558377    349.031104786    341.941507554    347.15651301    
361.251759627    346.86225004    199.312865325    194.663542871    190.470007758    
210.470844481    165.06933603    176.692662154    168.96641615    192.573891644    
135.46048286    171.153146604    305.666012339    303.13179698    311.138836177    
285.959763869    297.671961315    315.649901419    296.637646649    310.948687854    
330.786212834    311.979029057    305.236323373    331.295197389    326.324793187    
337.941884019    325.646893083    344.269137872    337.230687419    327.786889949    
341.136335083    328.221745164    346.366289719    341.593030478    352.06154141    
354.611922654    365.896820474    364.488951371    359.18405834    359.944651274    
351.337782819    333.023112569    364.117877203    304.125881925    286.865255898    
282.13578121    292.548279268    280.457108628    295.081605354    311.454709346    
310.320524705    311.743592592    308.142774502    329.387412743    331.002255428    
334.462956861    339.150291498    343.46024191    318.226932945    287.976732011    
304.08818994    333.747662662    193.865981283    268.386531491    203.274245519    
235.678666747    218.858213636    237.846964562    258.305813013    230.625232824    
246.780684818    224.827092903    242.6387599    245.783978852    205.332174748    
227.445596981    268.208149309    341.044343108    334.780922249    325.287383939    
328.540506428    336.820906085    335.488149976    356.487245521    357.569325111    
348.115764431    330.382460808    327.987960723    332.303463087    337.745809365    
334.372785761    342.054108982    344.735879843    345.391826207    352.891012951    
341.721408284    326.238041961    323.344132013    343.949698794    334.494148653    
355.030071893    363.773248689    359.789999244    364.336926489    357.170389214    
360.004254532    310.398787218    303.174270915    294.58491652    216.658644449    
203.78596171    246.295597561    353.393351807    361.270190407    354.193646383    
360.516761887    352.977190352    333.520409805    340.584880366    341.158051172    
350.416655614    338.803717129    349.87682783    338.514969889    333.062545512    
338.350836118    329.128376425    324.689661844    326.969610921    355.519199549    
348.504042608    337.050205469    318.840462158    310.912153096    320.508365433    
324.916328322    326.819441571    318.714991309    320.686951045    322.320349898    
311.635552582    311.784927998    304.385798043    284.789792277    276.045681634    
302.190111822    242.914418694    224.964156538    218.718019694    395.259170459    
395.194677251    390.35990677    385.858080245    392.073893535    389.736168743    
201.259541504    204.611785784    378.647851569    367.53404981    154.487064241    
177.494649695    360.875435724    378.981878284    368.063124672    365.59078978    
394.04088178    393.698432541    392.882621805    317.798398945    322.535751886    
289.653776852    282.398296443    205.511755025    217.400511141    360.010418393    
353.677665566    378.380441544    372.406026638    323.413935273    307.959002045    
132.698426855    152.271001982    115.728124303    68.4706220567    98.0851696709    
239.142856545    255.385284736    300.685287929    290.024910345    371.953979798    
373.106788366    299.214920384    306.346855403    346.165041204    340.63395637    
290.444237039    303.460731806    297.631004511    281.321866758    319.913757339    
315.488101188    352.008183801    350.518128399    349.659468535    196.331874721    
174.973967474    244.394402628    265.390121306    196.04753544    246.358113582    
93.9493572416    192.692342244    42.6005166099    95.3298236098    115.551268078    
33.542259392    64.2122361023    84.4280430107    104.666599244    179.055399731    
240.949336921    208.993358701    193.588217833    329.205462229    306.338831904    
314.637196535    350.241441498    338.193553572    385.592142401    365.113190997    
326.964048459    342.143624613    363.586241007    338.738565082    359.791514589    
376.312380109    354.831981792    389.7974661    365.795971304    363.784792336    
377.405502435    370.959827052    349.369656177    354.356997283    394.32396821    
383.899299554    386.184164107    392.895719634    384.768888955    380.247458615    
354.233013361    340.258372556    353.51442158    363.560545916    351.646067317    
360.913018648    356.462475189    365.462362956    340.373216363    343.427612102    
334.577413021    331.393804922    356.738463532    378.165567877    376.254793051    
376.219481531    372.086448384    279.8752159    262.402818428    246.805468619    
260.956369447    258.302928973    272.320111448    237.559595576    216.610792758    
288.392580191    252.53927119    220.649158738    210.373681744    207.454102803    
197.038959294    224.808176616    260.452551199    269.291017345    241.617066215    
250.537145196    266.569174359    219.302846052    272.086608396    279.007206451    
241.492929692    231.155108474    244.410374798    231.744987237    264.129509122    
258.668026547    232.32651623    248.720673278    242.605539031    260.638014776    
246.964520408    375.44626804    348.220310361    358.053453042    372.372899951    
365.89832851    370.751689464    364.445151636    372.346863191    360.389836966    
353.360240119    356.378772639    344.635992479    367.644033955    368.544027623    
360.114246585    360.881874629    370.679225316    375.721620236    273.224030721    
283.859008124    379.859429813    380.711056942    
0.460587440881    0.477534362079    0.479232755334    0.473773067026    0.477943026662    
0.14383513908    0.243952019866    0.345016994243    -0.0428659793017    0.106990961848    
0.482815619744    0.478222631192    0.0503502239705    0.0837243649388    0.478446929996    
0.482268843024    0.461085919692    0.441182154214    0.464568794001    0.482388470302    
0.482039111658    0.392691032913    0.433854914147    0.449735341127    0.436965667232    
0.389851839621    0.470368873926    0.453094566384    0.469777411044    0.429104361851    
0.447783022044    0.387501769509    0.366976869904    0.411648357695    0.388651916988    
0.356557323971    0.0214724269582    -0.0101080423987    0.00954224162686    0.0110232238606    
0.0315855372256    0.0250925882952    -0.00297486295928    0.280979283554    0.109118604247    
0.329147358246    0.354494521779    0.289007336969    0.338758905085    0.316402869051    
0.291927112027    0.289502404988    0.265559870211    -0.0298075549239    -0.0362366653322    
0.236406671473    0.185285626075    0.221594237429    0.249234427369    0.259092855145    
0.214013942177    0.190595326377    0.187153048657    0.164491777812    0.20856040219    
-0.0560734906902    -0.052161659527    0.0522072379156    0.00732718099    0.114842234175    