Title = " tecplot file for 2D Cavity problem " 
variables = "x", "y", "z", "velX", "cellCentroidY" 
Zone T = "nmesh0" N = 279 E = 933 DATAPACKING = BLOCK, VARLOCATION = ([4-5]=CELLCENTERED),  ZONETYPE=FETETRAHEDRON 
-0.5    -0.5    -0.4138704772    -0.5    -0.2    
-0.24482126451    -0.23575467071    -0.3    0.050808641656    0.0    
-0.035402467434    -0.5    -0.5    -0.40273798903    -0.5    
-0.13552710118    -0.14568896865    -0.1    -0.41627466288    -0.5    
-0.5    -0.047222460383    -0.5    -0.5    -0.41449434413    
-0.5    -0.5    -0.42966308666    -0.43062428304    -0.5    
-0.41844879934    -0.5    -0.5    -0.5    -0.41564796953    
-0.5    -0.41585244471    -0.5    -0.4    -0.3434495945    
-0.33931008122    -0.5    -0.42296874523    -0.5    -0.5    
-0.5    -0.5    -0.5    -0.41858366132    -0.5    
-0.5    -0.42031270266    -0.5    -0.5    -0.5    
-0.5    -0.5    -0.41230586171    -0.5    -0.5    
-0.41945183277    -0.41984084249    -0.42113384604    -0.5    -0.41490575671    
-0.5    -0.5    -0.41870516539    -0.41764780879    -0.32830968369    
-0.41883659363    -0.5    -0.40545964241    -0.41817352176    -0.5    
-0.5    -0.41744318604    -0.39857164025    -0.40753334761    0.04200366788    
-0.0090313917026    -0.059950577298    -0.0091472639982    -0.0092070130631    -0.068697194278    
0.050223418972    -0.24631274311    -0.28019207716    -0.26011336554    -0.3341501779    
-0.27584463358    -0.23610930287    -0.33131123226    -0.17413212761    -0.22436501086    
-0.263208228    -0.23238664304    -0.27598884702    -0.33237166555    -0.21457947791    
-0.16503904625    -0.11743831635    -0.11857869927    -0.0798689574    -0.068677297262    
-0.090018058647    0.11803464131    0.099178366363    -0.0081998756346    -0.0096004065126    
0.048075954435    -0.12863354104    -0.11733826995    -0.16343067608    -0.0057675576389    
-0.02876667971    0.0048525476329    0.0098382532597    -0.34318292141    -0.29205598748    
-0.33475478502    -0.1486280825    -0.18488626182    -0.2427204482    -0.242702547    
-0.16331023844    -0.30079066753    -0.23927073798    -0.12861982796    -0.17706693709    
-0.30063694715    -0.17937526107    -0.30518463254    -0.39426568151    -0.42356720567    
-0.5    -0.40326237679    -0.5    -0.40986120701    -0.41669696569    
-0.4073702395    -0.40607604384    -0.3158608377    -0.35370069742    -0.16532303393    
-0.1905174493    -0.16084399819    0.024327076972    -0.0042448728345    -0.029528370127    
-0.14493252337    -0.093885757029    0.00073439249536    -0.31226351857    -0.42919543386    
0.0074519892223    -0.072128616273    -0.060991029216    -0.39494851232    -0.40124544501    
-0.29612326622    -0.33262723684    -0.31114178896    -0.33769670129    -0.29911604524    
-0.35651803017    -0.32330669084    -0.23019745408    -0.35020586848    -0.28339850903    
-0.22941367328    -0.22749258578    -0.34938344359    -0.33235824108    -0.24915324152    
-0.089128628373    -0.24107302725    -0.305768013    -0.36995851994    -0.28083875775    
-0.33818015456    -0.36220404506    -0.20621149242    -0.18753695488    -0.30234223604    
-0.27456402779    -0.20082744956    -0.078038915992    -0.056873571128    -0.092446729541    
-0.19577488303    -0.061174482107    -0.30310287634    -0.28587833047    -0.23312325776    
-0.33568501472    -0.042051788419    -0.098757520318    -0.026364712045    -0.12949573994    
-0.12082306296    0.03918877244    0.031862605363    0.094177126884    -0.33942726254    
-0.29246428609    -0.3474381268    -0.20441767573    -0.18693882227    -0.29569122195    
-0.33162468672    -0.13476338983    -0.096805028617    0.036933004856    0.045684359968    
-0.03245934844    -0.011179689318    0.033830851316    -0.13768592477    -0.013419246301    
-0.13240630925    -0.3104069531    -0.35463994741    -0.04118507728    -0.23437448314    
-0.22919301689    -0.04975425452    -0.18743665516    -0.12804052234    -0.14424198866    
-0.14361406863    -0.2402394712    -0.32929396629    0.079051792622    0.092493660748    
0.11585833877    -0.12831155956    -0.24538828908    -0.22267621756    -0.15811020136    
-0.071546114981    -0.052821282297    -0.14788794518    -0.046197623014    -0.019574807957    
-0.16609786451    0.10845112056    0.10168384761    -0.09914444387    -0.20868697762    
0.015071149915    0.02622140944    0.042061634362    0.093645699322    -0.14509645104    
-0.18367117643    -0.22727786005    -0.23836529255    -0.11940420419    -0.19018102103    
-0.094359830022    -0.073288328946    0.040998559445    -0.071007244289    0.0025002514012    
-0.024417564273    -0.15145096183    -0.11792815477    -0.12434826791    -0.081871159375    
0.0036510885693    -0.33809819818    -0.33518958092    -0.24312114716    -0.2607704401    
-0.18621949852    0.0041586537845    -0.11848574132    -0.066529624164    
-0.41485025007    -0.5    -0.5    -0.5    -0.5    
-0.41283393872    -0.5    -0.5    -0.41729287326    -0.5    
-0.5    -0.3    -0.33946267551    -0.33777949659    -0.4    
-0.5    -0.41208065577    -0.5    -0.5    -0.41728052302    
-0.5    -0.41486208818    -0.2    -0.23584578721    -0.23411175976    
-0.43068598049    -0.5    -0.42995592938    -0.5    -0.5    
-0.5    -0.4186464452    -0.5    -0.41612026266    -0.5    
-0.5    -0.5    -0.41664445837    -0.5    -0.41692620871    
-0.5    -0.26363756361    -0.28292962909    -0.33609252844    -0.33349709041    
-0.249058776    -0.32956940884    -0.23962192862    -0.27891886234    -0.32513141571    
-0.008366833925    -0.052761904895    0.052400162046    -0.070394171848    -0.079524700525    
-0.16949393494    -0.26359996334    -0.22462379932    -0.17442565478    -0.23341764585    
-0.39626502991    -0.39000582695    -0.38854262233    -0.167206266    -0.21656090021    
-0.11920000043    -0.33292833057    -0.38923168182    -0.38744470477    -0.5    
-0.38401687145    -0.41206894535    -0.11893348396    -0.079890802503    -0.068741583773    
-0.13555449361    -0.38211107254    -0.12734723091    -0.29863846302    -0.5    
-0.41674688458    -0.5    -0.5    -0.40289950371    -0.5    
-0.5    -0.5    -0.42898601294    -0.5    -0.5    
-0.41750517488    -0.5    -0.5    -0.5    -0.41281157732    
-0.5    -0.5    -0.40747857094    -0.5    -0.41370663047    
-0.5    -0.40743523836    -0.5    -0.41088786721    -0.5    
-0.32515165815    -0.5    -0.40350434184    -0.5    -0.40420889854    
-0.5    -0.5    -0.3970053196    -0.5    -0.5    
-0.23964649146    -0.33351694239    -0.27894175053    -0.30869972706    -0.32854859337    
-0.25977108713    -0.057836333107    -0.10745344311    -0.11206135244    -0.0030102295461    
-0.15246265199    -0.21857130527    -0.2256248161    -0.23243690152    -0.20350812376    
-0.11567308009    -0.003392345272    -0.0049290945753    -0.33723035455    -0.30859029293    
-0.23241246874    -0.27678754926    -0.32144021613    -0.16469444335    -0.16071881354    
-0.18672072887    -0.0080562373623    -0.32092088461    -0.41860616207    -0.41093692183    
-0.32145904978    -0.36317887902    -0.41830760241    -0.4120400846    -0.41277977824    
-0.40164154768    -0.42418280244    -0.37224984169    -0.40374770761    -0.28969687223    
-0.12737318873    -0.19458571076    -0.13304965671    -0.33117711544    -0.33320266008    
-0.38076633215    -0.21379083395    -0.1080025211    -0.36072266102    -0.3408729732    
-0.4298556149    -0.5    -0.5    -0.4240283668    -0.27121648192    
-0.28948011994    -0.42828205228    -0.4245095253    -0.24754928052    -0.17014044523    
-0.097862228751    -0.06353725493    0.00053410825785    -0.01035601832    -0.098688803613    
-0.066976070404    -0.05915017426    -0.29430642724    -0.41207942367    -0.41739445925    
-0.22237314284    -0.3187790215    -0.31538873911    -0.27542617917    -0.37738835812    
-0.32195004821    -0.3252928257    -0.14423176894    0.013849774376    -0.072664380074    
-0.19829428196    -0.010382949375    -0.024031469598    -0.097555346787    -0.17197673023    
0.022327756509    -0.037219654769    0.051580730826    -0.10807587951    -0.033202510327    
-0.086417846382    -0.24254579842    -0.24145521224    -0.31964325905    -0.3089671433    
-0.36624127626    -0.32122588158    -0.29029551148    -0.32322400808    -0.31761169434    
-0.32711231709    -0.3218523562    -0.18507558107    -0.32231086493    -0.23916488886    
-0.35726514459    -0.28612479568    -0.3407984674    -0.34549835324    -0.2038089725    
-0.10072826594    0.0026446154807    -0.23401971161    -0.24116706848    -0.068703122437    
0.047414053231    0.046832572669    0.016877345741    -0.27347123623    -0.20451775193    
-0.15168713033    -0.25626853108    -0.16637940657    -0.13675382733    -0.16424137354    
-0.16516906023    -0.21266616881    -0.27982017398    -0.24319313467    -0.15404245257    
-0.13821902871    -0.204676494    -0.18898910284    0.026923459023    0.075854338706    
-0.20733688772    -0.17033040524    0.024648226798    -0.085883244872    -0.014708385803    
-0.0056538614444    0.0078520355746    -0.25962746143    -0.23011241853    -0.17886283038    
-0.070242129266    -0.18226191401    -0.12770707905    -0.095085553825    -0.27010452747    
-0.02158492431    -0.090106748044    -0.11811682582    -0.23039861023    -0.17377643287    
-0.10164608061    -0.33556306362    -0.26796209812    -0.3723038435    -0.35306036472    
-0.2027105391    -0.19605831802    -0.16018170118    -0.0587884821    
-0.047227253924    -0.1    -0.047249239466    0.0    0.5    
0.5    0.41442177303    0.5    0.5    0.5    
0.41677370705    0.5    0.40324887541    0.5    0.5    
0.41387018658    0.5    0.5    0.050819165588    0.050803359143    
0.1    0.5    0.5    0.4138731024    0.5    
0.43005880489    0.5    0.5    0.43011936806    0.4    
0.34452176089    0.34441064656    0.3    0.24681515561    0.24691782275    
0.2    0.14903199201    0.14897584059    0.5    0.5    
0.4034895322    0.053418787127    0.096028618515    0.099127440898    0.0048444943122    
0.13553962655    0.19502935245    -0.028776735345    0.009828847833    -0.090026497793    
0.054965942991    0.070287145674    0.13123981904    0.13031650259    0.025578999767    
0.057747212072    0.3348193235    0.35815262794    0.32576542873    0.23969568284    
0.39257279038    0.099635541439    0.00280686724    0.15921212253    0.17814914882    
0.23531558774    0.29375813616    0.29499465227    0.19694010913    0.19534210784    
-0.094315826893    -0.14569373376    0.17494806647    0.38472351432    0.32543430837    
0.4129810924    -0.19368140399    0.0074413027614    0.24282771349    0.028995898372    
0.046871855855    0.02759852098    0.084021144665    0.11928126216    0.13650920358    
0.13731343842    0.13606494283    0.096321478486    0.05362962737    0.09926985708    
0.0098271481693    -0.02899071622    0.0048425336282    0.32721282985    0.35906100273    
0.33554839985    0.24083079202    0.29017758369    0.29415361015    0.17940241098    
0.16131149801    0.17871151865    0.23831385826    0.38608124852    0.32759987319    
0.5    -0.055645185549    0.011424860917    0.23586175998    0.30085864663    
0.33911429504    -0.062857338481    0.0077105318196    0.05839041274    -0.061958011744    
0.5    0.5    0.41858780384    0.40931478143    0.5    
0.5    0.5    0.4218134582    0.5    0.5    
0.5    0.41720235348    0.5    0.5    0.40948286653    
0.41369006038    0.41109591722    0.40362745523    0.051657501608    0.33172354102    
-0.12863014326    -0.097461871803    -0.19052541416    0.27060064673    0.4172065556    
0.085017584264    0.17286729813    0.15575273335    0.049886126071    0.27216950059    
0.5    0.41577538848    -0.037241317332    -0.12288366258    0.20995981991    
-0.092454954982    0.091885209084    0.41463178396    0.40589597821    0.42848265171    
0.39857259393    0.41507530212    0.5    -0.042594596744    -0.14280538261    
-0.10613802075    -0.031363163143    0.094171121716    0.23759411275    0.063413895667    
-0.14953349531    -0.090223203154    -0.12949052334    -0.04481126368    0.29248830676    
0.41278365254    -0.078907623887    0.33132430911    0.2142534256    0.32927832007    
0.39003032446    0.34509626031    0.053837504238    -0.042062774301    -0.028043944389    
0.35113686323    0.26714044809    0.20130155981    0.088892474771    0.18053664267    
0.075111486018    0.082229703665    0.4012170732    0.1706430316    0.30649361014    
0.31692281365    0.066784948111    0.19516539186    0.1727938056    0.24105484784    
0.3139936626    0.36995971203    0.43335348368    0.28269585967    0.30040669441    
0.35181468725    0.33446398377    0.30914595723    0.31131532788    0.12512798607    
0.29045191407    0.12425024062    0.12834770977    -0.026390599087    -0.03352824226    
0.00013410874817    0.14789235592    0.3097256124    0.17034308612    0.065575197339    
0.25056269765    0.33971264958    0.32316887379    0.36044147611    0.087443321943    
0.076657891273    -0.12783302367    -0.23380757868    -0.027454001829    0.24158235897    
0.14730614424    0.26697871089    0.32667097449    0.22994162142    0.30619335175    
0.27146923542    0.36249628663    0.24630178511    0.0038494174369    0.047855906188    
-0.031522978097    0.071087941527    0.13299069363    0.048695735633    0.12483026832    
0.20097199082    0.32793805003    0.43275335431    -0.011554532684    0.034136377275    
0.21756884456    0.1350004971    0.2219312489    0.1989158541    0.19620914757    
0.17704497278    -0.044534139335    0.21341387928    0.20955140889    0.13713715971    
0.21491414309    0.10178088397    0.0068812705576    0.36438843608    0.18471531557    
0.21636866033    0.11546137929    0.11486391723    0.11393018812    0.21634921432    
0.15856590867    0.075541429222    0.16571289301    0.15176047385    -0.01878917031    
0.19533498585    0.3235745132    0.032354045659    0.086914613843    0.20444226265    
0.064372561872    0.26334768534    0.052078723907    -0.029195344076    
399.551497757    399.834845349    399.556110133    399.764981902    399.890933758    
399.64473491    399.810407052    399.914300767    399.808163422    399.367310926    
399.757703235    399.869673598    399.396949476    399.523791264    399.561849462    
399.845948632    399.582274724    399.718518291    399.850050037    399.492670475    
399.262633069    399.492656979    399.85225993    399.705870846    399.965293469    
399.981218725    399.900869339    399.985518735    399.898055445    399.982194859    
399.906124032    399.742127123    399.925864248    399.830201019    399.693366765    
399.881672394    399.650651365    399.617011903    399.859084575    399.601381657    
399.936593129    399.771592472    399.934514611    399.908098887    399.766731037    
399.833159082    399.065402789    398.786067689    398.076473912    397.720272919    
397.792229848    398.997441559    398.298052649    397.421373256    398.527774035    
398.52673522    397.70392623    397.145085231    396.370857924    396.127921066    
397.201987818    392.024245315    395.989743161    397.742239782    397.286455559    
394.538819182    394.846258269    398.86004608    399.220763488    398.691608683    
399.030241428    397.859870585    398.093169519    399.512022587    399.860196923    
399.898252782    399.903374009    399.878578996    399.801861364    399.600091445    
399.77726489    399.582656631    399.861507803    399.446411819    399.552710807    
399.587371832    399.007616336    399.547305167    399.729855662    398.998740774    
399.25664955    399.622207692    399.199623957    399.295166936    398.316379724    
399.273368108    399.651432851    398.297091196    399.229671102    399.739120866    
398.639487423    399.538820779    399.194573493    399.053347916    398.939051165    
398.145015328    395.915562986    398.121022655    398.788161159    397.892878377    
398.787771443    396.436758774    397.13547846    396.948440701    399.387787143    
399.688951526    399.810646671    399.286748418    399.296789388    399.395351145    
399.71951485    399.462320507    399.386529241    399.498242568    399.713162285    
398.80383776    398.694768088    399.776571396    399.32433294    398.856994241    
398.823995002    399.283608874    399.641580191    398.876891652    398.536129351    
398.013260927    399.481905494    399.702736348    398.835283928    398.181614089    
398.66881217    395.128736773    397.220976545    394.727188362    398.136994905    
398.645533966    393.195679777    397.82566889    398.675580238    397.466240573    
399.094581633    394.918243456    396.210929547    399.02461576    398.802007793    
396.977557344    398.146368548    397.279962399    398.007184431    397.044628597    
396.996983209    397.854125903    397.488351525    398.080584297    399.076818669    
398.433356505    398.555636954    397.598733192    398.820336885    398.395721075    
398.348841105    399.448176398    399.419513793    399.136064146    398.716210066    
399.246886532    398.82237993    399.442426174    399.169392488    398.392210662    
398.761123248    397.95273654    399.254683555    399.159292719    398.605700942    
398.749174733    398.513641144    399.007738531    398.809330128    397.837044601    
397.602170444    398.38067603    397.62084037    397.561168237    396.89838953    
396.609006825    399.268362556    399.496925887    398.495593932    398.717138925    
397.987289321    399.66286948    398.597200028    399.56879376    398.915884269    
399.207497232    399.258835737    398.730545834    399.026967669    398.810978888    
399.201026146    399.189647389    398.112239585    397.96465946    397.502052995    
398.531668343    397.455674956    398.791012447    398.198105123    397.722269736    
397.179955898    396.63281436    399.491295936    399.597767152    399.29527763    
399.218541324    398.664295221    394.470363471    397.61978195    395.780751989    
398.043208268    398.4336522    397.969656089    396.484504612    395.29435057    
396.872835869    396.715896014    394.07063713    393.244877443    392.631389753    
390.563725389    389.341735534    393.342583167    391.103442061    386.696491666    
385.589993941    395.946652932    397.81886912    397.368646541    397.354974612    
396.965020236    393.993909814    399.686733977    398.579347523    399.613028286    
399.262336304    399.325348859    397.832979931    396.989429904    398.728676872    
398.15944814    398.557058259    398.182495816    396.77853103    395.467579712    
396.996103309    398.429695494    399.230788806    396.489881823    394.409386119    
395.476948458    399.640168406    398.723453193    399.092298936    393.010980833    
398.340185889    398.430582298    397.651817519    393.84666331    397.218295065    
390.897707441    385.391074298    392.034311264    386.600542915    389.905886643    
394.945836735    396.221796414    396.625124266    397.10579675    394.300891963    
396.007459627    398.023048411    399.073970517    397.585272439    397.146005932    
395.599826074    399.349544584    397.897375625    396.37824588    398.87078476    
398.931801572    398.568952205    396.320696668    394.279479899    398.097881824    
398.893459311    398.0387103    397.536841427    396.144862023    397.846938847    
396.415624834    397.643077552    398.882648284    399.460756376    399.547107155    
398.345429304    398.977340204    399.132417549    398.584267312    399.200760196    
397.465455319    397.419154978    395.652055699    398.46567313    398.928888263    
395.825236557    395.505731304    393.15211765    395.938940896    395.703319783    
393.597550361    398.799953019    397.910366852    398.675936837    396.157984297    
396.049736399    395.911196343    391.814383124    393.173458297    396.885791805    
392.656816897    398.910522055    399.118978759    398.453687851    396.660018797    
392.801996698    397.853800063    396.691117653    398.557280683    399.403693588    
398.353412025    396.539486666    399.415061574    399.620043748    399.779913247    
398.601266317    399.764709734    399.554059677    399.374788488    399.267858901    
398.951298618    398.632102091    397.959750021    398.731626727    397.337636798    
397.491565993    399.634537389    398.463817522    397.710763276    396.380275782    
398.359422333    398.725649789    396.044914667    398.036479888    399.565997072    
399.84386643    399.267114222    398.401924917    399.856681485    398.321539085    
397.898427857    395.432268829    396.328785559    394.040882071    397.354624874    
397.130075106    392.531047207    397.379614578    397.562330209    394.557556367    
395.909779138    396.715522526    396.381783757    399.036937488    398.790469137    
397.819978476    392.195883406    391.523666495    377.818700957    387.07481617    
396.861581521    394.469036236    398.93141782    399.052249532    399.014393401    
398.431800307    397.439139635    395.371089659    394.893396339    395.182565277    
395.117849081    396.100148747    394.524354822    396.86113468    395.982765792    
397.344581804    396.566221954    395.48929996    396.639583934    399.444187684    
397.041761051    399.545523696    399.151125649    398.970906344    398.682499607    
398.02231671    397.702990001    398.240540788    397.434367035    394.143003774    
395.751750295    395.340053979    396.176143383    397.599262464    399.406062075    
399.410663515    398.292828454    398.613308043    399.156214959    397.302444333    
398.380937904    394.368899154    396.203381467    396.442316627    399.070602496    
396.217480886    395.448171274    393.753231626    397.985265324    399.102791235    
398.678358506    399.671328908    398.921505583    399.80109728    399.665337466    
398.670624451    398.139113243    398.669571592    397.778914852    390.351873036    
393.491597584    393.420412151    393.205087841    394.478640109    393.774885599    
393.630312398    393.788318736    395.500962064    393.714101043    387.386249348    
387.522658752    392.265541381    392.595353989    389.056158326    393.468391298    
392.882621937    396.194633091    395.186860112    391.761946932    381.584318877    
381.811730359    383.396382854    386.249178288    377.406895137    374.233031628    
375.208656744    394.544407423    393.652652273    393.409883814    393.915511164    
393.955608697    398.598194047    395.626401846    398.965174137    398.847783807    
397.206106757    395.727110701    397.437100526    393.981057665    393.815661922    
399.238714527    398.263315961    396.675480333    399.319527287    395.58744514    
396.728578908    395.092319235    398.050998055    398.643562617    399.2928586    
395.7374295    390.541682312    389.942611301    389.123587851    392.054113765    
388.69492596    395.617483612    397.382291443    397.665900054    398.978462947    
396.427223809    393.229781722    395.497929649    396.486216046    398.064698212    
397.166642497    390.947478999    391.418184908    391.598052757    396.889179338    
393.490315711    398.024811975    394.485977377    398.551387577    395.988894101    
396.141325832    395.444045738    396.553349383    392.15949744    391.609263692    
389.692153551    389.242716408    376.5017763    375.816641518    372.315482365    
374.35929403    379.832975476    388.080644663    387.569433518    394.121177618    
391.909858464    392.360318624    389.41587029    394.990389294    392.683166135    
388.724253636    389.640354768    392.706820371    396.361917491    395.797649178    
389.987017073    395.182713323    396.036731506    386.406637083    380.828828239    
380.254771625    387.439832922    381.790835989    383.145155272    384.207835572    
375.841145813    388.755365689    384.203849772    388.310317496    389.119896528    
384.356268881    376.322928752    379.933421649    374.697258387    381.240802443    
379.536925729    382.682947615    388.220466248    386.296411008    379.802900411    
389.373475468    386.186092935    386.641097112    376.11235855    390.495089725    
393.338414852    388.829508508    393.237160597    392.776487087    392.277255353    
384.512952892    386.073789536    385.233912851    389.041176003    386.608259764    
388.69649765    385.965288272    389.038796147    387.095446003    389.636777561    
386.223368518    390.203828491    391.520323717    387.790765095    388.594143434    
391.586118919    385.416382304    393.063321376    392.266883652    390.207518868    
393.241617577    392.628977369    393.333929479    392.210871926    394.060767239    
392.289253402    394.087751491    395.053417588    392.874143811    393.161166958    
393.493656469    395.976164873    393.953742231    386.317980985    392.337379018    
386.535262931    391.130980836    391.561161    392.755156955    392.660086024    
389.723751696    389.854261296    391.220110824    386.229656839    391.510739601    
388.690276207    391.280008886    392.959153588    391.696576761    393.661106145    
392.684508521    390.617725872    385.529520775    393.952705543    388.154317723    
389.451766598    392.704526039    392.036606416    388.587678461    392.848273279    
390.806084144    393.977143553    395.58174073    394.378868215    392.413986714    
395.999152237    392.895018626    393.94060987    396.174877601    393.267027709    
396.698502406    397.067742697    382.341709366    385.543386446    383.714936127    
383.483153066    382.586898757    388.071516583    393.000795768    388.284210725    
391.231017159    389.922931225    389.287006061    387.642772684    388.015413434    
391.982369345    394.19967452    391.261237456    390.91103712    386.245563215    
390.066599762    385.374095737    390.136959267    392.076871425    385.55281164    
389.722328077    382.141841706    375.700741205    367.482028366    361.915855635    
356.487246184    361.212604211    369.927639884    386.024786547    390.082723425    
386.102579625    382.884094798    394.404226094    391.9441408    391.344984735    
393.436558868    387.82115627    395.894223459    394.70084315    394.799038287    
392.528186418    396.521177725    394.855617764    387.901484661    386.700447049    
385.86811686    389.647271294    385.2169821    383.284668252    388.227363178    
389.61804428    387.052424774    386.679344826    367.117142442    361.832318768    
379.269107121    367.186290213    374.674078061    382.691979184    380.421676217    
378.865008685    360.51676255    381.13209689    380.07426992    378.355671971    
379.912711964    384.637204783    384.990977794    386.084325785    385.09152191    
384.662998803    382.141849817    380.564207637    383.792184794    381.721111428    
384.43170699    382.803815254    380.227772814    377.776426749    378.351422234    
375.040069659    380.613044967    381.565559418    374.215044711    377.288243189    
370.172348777    376.095935432    379.794538629    379.747727032    375.611314824    
382.53771386    388.850062067    382.762588894    380.276529006    382.048876991    
383.879124666    390.295495103    389.500381538    391.639136028    387.607399967    
392.853528113    392.201994675    393.560002067    393.914908652    396.759632804    
394.453449717    398.992975401    398.06409724    394.604296751    399.528358127    
398.636506267    399.291446938    397.077305282    394.468767863    377.722668695    
375.05503211    374.427433343    372.393975208    373.898036525    376.583164905    
380.82226852    370.390971977    374.606495322    379.603624552    382.863772585    
379.964952307    375.714205703    380.112518157    369.151583508    377.14822513    
374.743166385    381.217409185    375.228870475    381.852707157    383.21293785    
379.041757    383.595612983    375.927281523    371.730268399    370.354723909    
375.45887771    367.673584435    363.527028562    359.567402239    370.619608749    
375.108226058    361.925112497    354.193647173    345.391827095    362.771692967    
358.527005897    366.780299927    384.676463059    389.612199154    391.138544348    
390.028888779    389.067996859    385.252318372    391.390247968    376.410398486    
380.228071675    372.753949023    380.434263955    372.994487171    380.290066323    
380.985592167    384.508034239    384.560600334    353.393352721    359.922637605    
349.876828893    352.977191074    350.416656502    362.592587549    368.133504628    
370.531554018    372.888804806    378.837227745    373.984365149    373.912050685    
381.033571054    379.531300388    371.1707985    372.505165003    366.327265183    
371.972834884    366.992318008    367.114972691    380.448116143    382.773807409    
381.876575641    382.850513855    386.619499407    381.498126756    357.06713384    
353.776023974    359.835891159    357.943539289    367.969716862    370.87954926    
366.238989527    368.927247655    364.165575366    359.065642466    365.327956467    
362.388127672    368.368029904    377.528488158    376.162684236    375.688698487    
377.073370532    371.682122584    378.45350219    370.560603755    380.845695042    
381.207765095    376.827756166    372.319164362    357.285007375    360.586918585    
360.701617493    371.045918628    368.074632019    376.236555128    373.508667155    
375.210926584    355.241671622    373.238035457    375.812739432    374.560326554    
398.568542363    394.039498681    397.492217457    397.81926878    398.16136092    
396.657952821    387.67287924    391.518414938    393.87710546    394.431466249    
382.351891451    396.690581687    381.834533934    386.642211864    384.713432468    
377.263763468    368.313419977    396.001452799    395.333778759    395.892754818    
395.04687501    390.734362032    388.340619543    393.396937235    394.929781204    
394.598995793    392.765223453    380.953350656    374.502220794    379.154702607    
377.133418876    377.661973303    359.357837814    