Title = " tecplot file for 2D Cavity problem " 
variables = "x", "y", "z", "velX", "cellCentroidY" 
Zone T = "nmesh0" N = 264 E = 933 DATAPACKING = BLOCK, VARLOCATION = ([4-5]=CELLCENTERED), ZONETYPE=FETETRAHEDRON
0.5    0.5    0.39956721182    0.5    0.2    
0.23892791459    0.23153735228    0.3    0.5    0.4115682451    
0.5    0.13209314197    0.13736922805    0.41578080408    0.5    
0.5    0.5    0.5    0.41276644951    0.5    
0.5    0.5    0.41672585222    0.5    0.5    
0.41575962317    0.5    0.5    0.41256688197    0.5    
0.43249949214    0.5    0.5    0.42913825798    0.5    
0.5    0.42836019649    0.4    0.41596076012    0.5    
0.5    0.41981491446    0.5    0.5    0.5    
0.5    0.5    0.41165295243    0.5    0.42168983817    
0.3400972769    0.40643143654    0.5    0.5    0.41527977586    
0.5    0.5    0.5    0.41874924302    0.40574300289    
0.32618201123    0.41569638252    0.5    0.5    0.41802930832    
0.32744805705    0.41065472364    0.5    0.32383922021    0.40414276719    
0.5    0.5    0.40529754758    0.5    0.13917322365    
0.075273913793    0.12681150436    0.1659873915    0.24049588671    0.28412730101    
0.33738765121    0.32846847876    0.21599367261    0.24149773849    0.018218039662    
-0.030118683353    0.057250451248    0.11026169429    0.10691646487    0.15323724917    
0.22844861004    0.29309883714    0.32237941699    0.23439248765    0.1615903074    
0.18354015052    0.1743232997    0.1739910841    0.13434351875    0.29473999143    
-0.024988340214    0.075945161283    0.11269637197    0.05350411837    0.199893713    
0.2551958203    0.30577623844    0.33595085147    0.21983735443    0.21220782399    
0.26118835807    0.23988850923    0.4183511734    0.32413241278    0.41288724785    
0.41627711058    0.5    0.42226392031    0.41622126102    0.33426624537    
0.4201413095    0.33957649135    0.5    0.40772935748    0.39354494214    
0.404743433    0.41080650687    0.42240139842    0.41142642498    0.5    
0.42564427853    0.23029404879    0.23977512121    0.30331286788    0.05798689276    
0.34128198028    0.34028389127    0.10747696459    0.10177732259    0.17720426619    
0.090107783675    0.12572585046    0.33006593585    0.35493135452    0.39897340536    
0.32872989774    0.32177346945    0.36976534128    0.12949699163    0.02540740557    
0.050998203456    0.040414143354    0.235117957    0.16359171271    0.27145576477    
0.18004000187    0.42380711436    0.33005258441    0.29873308539    0.3027382791    
0.28961977363    0.25203999877    0.32073333859    0.32815802097    0.34152519703    
0.28594651818    0.26374059916    0.16394655406    -0.083267346025    0.041503503919    
-0.041165109724    0.12168388069    0.19700033963    0.13448160887    0.19848676026    
0.23640879989    0.33997377753    0.06172849983    0.20185385644    0.36965695024    
0.30533906817    0.12949590385    0.22903570533    0.20047597587    0.20252458751    
0.13790485263    0.31950846314    0.31985118985    0.33092859387    0.21880926192    
0.4014864862    0.32444682717    0.25187698007    0.22624154389    0.16945490241    
0.06426165998    0.10646748543    0.099418915808    0.10967241228    -0.0049792267382    
0.20461961627    0.20344738662    -0.0081724626943    0.095074817538    0.19366455078    
0.034904532135    0.2703794539    0.077900789678    9.8228352726e-05    -0.025411091745    
-0.023622816429    -0.10741198063    0.028138827533    0.1277204752    0.089858144522    
0.15730819106    0.044982854277    -0.02923585847    -0.021785223857    -0.089062400162    
0.1281991899    0.13262072206    0.24076008797    0.14146855474    0.049275837839    
0.021336633712    0.099765390158    0.21671915054    0.16263964772    0.029059011489    
-0.066529624164    -0.04713287577    0.24469183385    0.25666350126    0.33016222715    
0.31448689103    -0.074207119644    -0.13722740114    -0.031658235937    0.0094026327133    
0.067133828998    0.12283967435    0.09027723223    0.12012530863    0.11529561877    
0.247710675    -0.10070315748    -0.099340446293    -0.11982141435    -0.18032833934    
-0.019795352593    -0.019804503769    -0.038092400879    -0.094810500741    -0.1170893684    
0.025678804144    -0.024417564273    0.1961221993    0.068103633821    0.015170675702    
-0.014718302526    0.19300557673    0.43577221036    0.052900869399    
0.39969751098    0.5    0.5    0.5    0.5    
0.5    0.41131431    0.5    0.41188366054    0.5    
0.5    0.41540583426    0.5    0.33947748232    0.34029280491    
0.3    0.4    0.23878142205    0.23802795747    0.2    
0.5    0.41638409393    0.5    0.5    0.13704872465    
0.13647533199    0.1    0.41261783441    0.5    0.432153258    
0.5    0.5    0.41627475889    0.42790726717    0.5    
0.42838880419    0.5    0.5    0.5    0.5    
-0.004451597045    0.024051796645    -0.083182727769    0.0074893949164    0.13091126552    
0.069117591781    0.32892737464    0.35470357537    0.32329967478    0.38945969939    
0.5    0.39572280645    0.33874036624    0.15569507495    0.18050545454    
0.14815816148    0.23766310229    0.056480263476    -0.051343418658    0.11606233567    
0.28217272988    0.28777328134    0.28424562361    0.32682466149    0.38527554274    
0.5    0.18327124417    0.17398359979    0.17219533633    0.10724130273    
0.10954857444    0.23719398748    0.27081358433    0.23650637431    0.5    
0.5    0.42218753695    0.5    0.5    0.5    
0.4055327177    0.5    0.40878561139    0.5    0.5    
0.41021424532    0.5    0.5    0.40951111913    0.5    
0.5    0.41416463256    0.5    0.5    0.32314076394    
0.41706010699    0.5    0.40473395586    0.5    0.41352653503    
0.41023689508    0.40488776565    0.40081068873    0.5    0.40188318491    
0.32669885795    0.33583059907    0.39862014685    0.22402612177    0.29128858447    
0.16721591353    0.10542630627    0.41754481196    0.5    0.5    
0.26167833805    0.229218125    0.31865110993    0.41635105014    0.4051028192    
0.10479418933    0.051370315306    0.052729285155    0.037101287395    0.098883368075    
0.14297755063    0.21015691757    0.34662178159    0.31806838512    0.32591989422    
0.42559543252    0.42262995243    0.4138597846    0.40688899159    0.41847035289    
0.41375112534    0.5    0.38607373834    0.29881185293    0.20481482148    
0.17115314305    0.074683457613    0.23920804262    0.33473542333    0.21166716516    
0.11139494926    0.11394380033    0.064577847719    0.31126359105    0.32341533899    
0.34383583069    0.23833499849    0.33582484722    0.30417972803    0.318215698    
0.12659868598    0.30121514201    0.16664245725    0.22263081372    0.13677279651    
0.1197059527    0.046330191195    0.03692343086    0.025269117206    0.31281200051    
0.35170808434    0.27493157983    0.32931315899    0.27131479979    0.32977220416    
0.29751354456    0.22956226766    0.41255375743    0.31652632356    0.2484177351    
0.22946728766    0.29424312711    0.042389310896    0.24808271229    0.18749162555    
0.29553985596    0.025489391759    0.062724344432    -0.026395486668    0.11355000734    
0.15976892412    0.20585776865    0.21250197291    0.03782395646    -0.037056777626    
-0.035562954843    0.32391750813    0.32520911098    0.28740420938    0.19160328805    
0.21694687009    0.28223505616    0.27348574996    0.35291832685    0.29079681635    
0.14584951103    0.095006659627    0.36908686161    0.057861108333    0.055856585503    
0.14440822601    0.16567063332    0.0080390023068    0.064655043185    -0.025855921209    
0.026505835354    0.055268414319    0.02280225046    0.16882608831    0.25087565184    
-0.0029765672516    0.24680477381    0.15427291393    0.2582000196    0.22432801127    
0.1128847003    0.0047129187733    0.0042603965849    0.1021591574    0.14738327265    
0.12662006915    0.062003210187    0.1858946681    0.22532527149    -0.040290866047    
-0.0587884821    0.052678707987    0.041254688054    0.12977704406    0.095714308321    
0.23786218464    0.078528016806    0.029672401026    0.097736671567    0.043773494661    
0.10779263824    0.22684594989    -0.021924061701    0.26801609993    0.14785385132    
0.16071335971    0.026198217645    -0.021241758019    0.089447163045    0.097218066454    
0.20059047639    0.20794272423    0.16411808133    0.13191781938    0.14277984202    
0.19892947376    -0.02158492431    0.26006263494    0.32530039549    0.11158268154    
0.12909922004    0.063307881355    0.15739028156    0.18781583011    
-0.33866664818    -0.4    -0.33849824765    -0.3    -0.5    
-0.41456064362    -0.5    -0.5    -0.23538588605    -0.23502995202    
-0.2    -0.5    -0.41665129901    -0.5    -0.41757449073    
-0.5    -0.5    -0.41433816876    -0.5    -0.5    
0.0    -0.03482816    -0.034013318223    -0.1    -0.41609585065    
-0.5    -0.5    -0.13515066132    -0.13472599842    0.049668605697    
0.050932008248    0.1    0.1338315988    -0.5    -0.5    
-0.430184567    -0.43012969401    -0.5    0.13663319722    0.2    
-0.054975019742    -0.012617296539    -0.019241548604    0.046792553739    0.050671573191    
-0.029669427208    -0.26209446696    -0.22357727587    -0.17325149594    -0.39547523856    
0.051700528289    0.077648535371    0.049445390921    -0.15709710907    -0.11217790842    
-0.06347358832    -0.11596301325    -0.13308059917    -0.069024145603    -0.014157147147    
-0.5    -0.38759097457    -0.33086023526    -0.067293913511    -0.07909090817    
-0.06652190812    -0.38553187251    -0.32616159469    -0.5    -0.17599338293    
-0.23780244737    0.10549143739    0.049918755889    -0.0051805641003    0.13620338323    
0.045932745048    0.075629703701    0.044752991542    0.10595417938    -0.3307702295    
-0.31030526757    -0.2616473045    0.048317167908    -0.0057556705344    -0.044275085471    
-0.0060922489502    -0.14322731787    -0.24055238104    -0.17987951636    -0.15585884128    
-0.2292807784    -0.22107885778    -0.17230846118    -0.11349106293    -0.5    
-0.38605517149    -0.32695359205    -0.10760356486    -0.053460777527    -0.11744047701    
0.11474210024    -0.017267705873    -0.30237615108    -0.33962245788    0.1555070281    
-0.5    -0.40458709002    -0.5    -0.5    -0.41133615375    
-0.40178945661    -0.5    0.15958067775    0.17247740856    0.23814801874    
-0.17723600566    -0.22976599836    -0.30431655049    -0.161204651    -0.0074634975754    
-0.41993972659    -0.5    -0.33813941609    -0.10843267292    -0.29801934958    
0.0837681517    -0.022460795939    0.0029560043477    0.13202397525    0.16526434067    
-0.28936305642    -0.29811424017    -0.041891459376    0.11633669585    -0.10462293774    
-0.41521838307    -0.41754678867    -0.41986095905    -0.40432164073    -0.41892081499    
-0.41247218847    -0.42226782441    -0.40299513936    -0.1412307471    -0.27692452073    
-0.43074804544    -0.094377815723    0.052292995155    0.12092830241    0.052092600614    
-0.23954698443    -0.38140290976    -0.16880889237    -0.31372946501    -0.27856189013    
-0.34880107641    -0.10024724901    -0.33120939136    -0.15389552712    0.0090291341767    
0.13685636222    0.037774868309    -0.15957440436    -0.050448991358    -0.044781114906    
0.047008216381    0.0049936147407    -0.018255880103    0.065062306821    -0.33499318361    
-0.043345879763    -0.36035710573    -0.2097568959    -0.19554537535    -0.22581070662    
-0.32144889235    -0.33216997981    -0.3359747529    -0.1201742515    -0.19581690431    
-0.20140074193    -0.087655283511    -0.085743904114    -0.024072546512    -0.17525468767    
-0.25212776661    -0.059111025184    0.086622461677    0.1615049094    0.11095100641    
0.042325694114    0.13274617493    -0.075362809002    0.099046066403    0.163947016    
0.086114391685    0.036438047886    -0.11449263245    -0.081502474844    -0.15602079034    
0.065897509456    0.19563245773    -0.078917212784    -0.2534519434    -0.27735134959    
-0.33338880539    -0.24118041992    -0.16998247802    -0.2319624126    -0.2208904177    
-0.14529950917    -0.26691731811    -0.050664272159    -0.11933533102    -0.26400905848    
0.052815146744    -0.034520238638    -0.25719451904    -0.25361275673    -0.15367992222    
0.14954343438    0.17605555058    0.19721028209    -0.01128491573    -0.047469347715    
0.052222408354    0.08092341572    -0.033421739936    0.079760968685    0.059226922691    
-0.029195344076    0.020682629198    -0.20579455793    -0.31545513868    -0.23053814471    
-0.26838359237    -0.19121952355    -0.15935574472    -0.07657096535    0.094147279859    
-0.17102652788    -0.18571078777    -0.0038021896034    -0.039259042591    0.061055991799    
-0.11375630647    -0.05257004872    0.052918769419    0.099740616977    0.015550041571    
-0.090027466416    0.023828176782    0.12354470044    0.021488841623    -0.15289129317    
-0.18501263857    0.15856590867    -0.028945000842    -0.018989352509    0.12526865304    
-0.15494127572    0.10828005522    -0.23034669459    -0.11339323968    
207.039429124    207.408126711    201.04905354    391.104024279    397.075781932    
214.247377409    398.891875603    202.450556353    133.734004295    261.785902372    
201.023995064    268.210308699    364.624734202    222.86659075    269.713333208    
219.775734721    146.137220591    189.950952542    395.27693752    392.527393902    
395.555578243    353.37155546    366.657410097    272.146107246    164.171607202    
221.44479351    314.979718755    241.251407285    372.06841736    336.151191531    
370.47534719    358.971914586    81.5833323145    172.791913601    223.275737793    
175.856599717    323.995776161    387.086551107    389.474307929    391.621982275    
388.119996144    385.499611219    381.384584834    388.467090585    363.819614291    
391.725194489    382.338083477    388.85231988    391.043771104    353.176004643    
89.5293773689    216.580972717    137.514755238    306.358909447    210.110832828    
391.121552298    384.167447833    395.868123757    387.058402009    392.083597849    
395.531153156    396.348647959    396.783265676    393.545458501    390.085611587    
383.185883219    373.695033323    24.4970745229    17.3741261086    65.1303559019    
28.6427251787    47.2237319948    32.3594779822    26.2969580589    30.1196666566    
54.3459080471    31.9595156366    321.942495943    271.783857898    198.902541661    
200.41500979    101.143156522    53.7420672739    32.3595964319    33.8211533432    
60.9850236448    50.9640526527    104.421842889    47.016057179    66.2792804693    
72.0714761635    23.8809706789    28.4332358739    47.6072115832    72.1518888863    
38.5192490455    56.2596844525    91.2425378041    68.0934006641    356.483857053    
341.184983706    372.546924885    362.261958822    374.646254022    380.037719403    
358.00691362    380.622789932    332.307357469    286.498215164    357.976846182    
313.624814327    388.309585769    189.704997297    58.346887628    101.001853846    
195.673980352    386.255210277    373.696347272    386.134054232    377.150053    
348.496629463    370.567080648    350.095908803    377.096932832    348.526445253    
377.770413963    381.977090362    362.090290363    341.373260272    211.484364336    
130.141630281    91.7617221691    108.623801996    95.3369705783    58.8215248957    
348.886695833    325.466502226    300.411293862    204.388818533    104.586345914    
203.893074822    37.6193440796    61.0659724423    122.866115778    55.3288103914    
117.952310916    394.954523963    396.294142198    393.370269543    379.170997135    
382.656866725    374.690892769    390.41186981    382.668263307    382.108487476    
393.851239338    389.189773723    387.757689087    393.129729148    391.544683677    
386.623824827    383.037429175    366.207230666    383.839855953    374.926668673    
356.303826405    373.041536252    369.047618668    386.326467699    379.536886339    
368.622542176    337.948992735    376.540389191    353.281288481    370.014103742    
324.524149538    170.956398236    176.28498895    235.308685611    344.753451345    
303.318726372    374.903749388    354.864645016    358.67855627    323.678265296    
282.021160705    224.64564495    189.325369317    295.806419519    259.547517959    
257.504306225    355.856028464    336.600716616    319.755185774    315.088409125    
196.255782418    145.878861432    185.518987222    122.309206261    107.357270519    
58.0693599506    99.0504510655    208.933364733    259.260844013    85.8364577746    
203.39974385    321.01229955    209.083039393    109.681867295    235.738170367    
88.2872794827    105.674609373    35.9666871958    61.1010779714    23.8930500042    
42.5523267186    80.9068871559    79.9955798813    29.5724769755    56.0265288847    
59.0640262731    92.0794848551    21.4756495256    45.3504769184    73.9607047627    
68.9757048665    27.6504374935    48.6165050286    115.316622709    88.6552848663    
58.6932351342    34.954526856    50.7737358229    93.0420902514    94.5708361219    
126.751939901    80.7689653858    16.88516239    39.2263526366    65.0913538399    
23.3474031598    47.1203147254    43.6507888418    65.031556332    242.574471422    
203.676322197    194.555444761    123.749023871    209.395345709    252.66239275    
320.433784644    314.406423999    209.315873391    95.3163583189    57.7058546684    
166.822631889    78.7831226896    152.520055295    242.676574629    112.69406153    
225.487800978    319.672075823    346.520228991    328.432832862    352.361816859    
325.732617933    133.724504606    300.001430322    296.709114307    310.331010567    
197.840764497    362.431271619    381.57661848    341.082227266    368.675620138    
354.67042847    370.621451579    363.245925786    386.461513448    379.417756678    
388.82897514    385.240618376    376.706973759    377.808596123    358.944450828    
202.857672271    166.282103821    180.929824978    378.494725561    380.632533626    
371.002576123    364.263820196    385.547421255    372.734059391    357.499353934    
389.205627984    390.063665875    396.722715241    394.668379541    376.969915371    
379.764552738    395.725378985    385.448130884    360.546164601    361.214940465    
385.550677861    379.692874559    371.979793497    126.634631357    106.50716611    
178.300901928    177.509006165    223.975805844    198.492132036    239.104721985    
229.989040454    218.493237628    219.189092476    177.279967461    358.464946281    
320.20425898    354.017804965    340.008505907    380.862570329    365.065867431    
325.947903004    290.883140557    311.772052261    272.495068921    249.942875058    
383.219148184    365.324623484    365.595375421    335.532934717    355.055363079    
355.101137407    364.002553574    368.689522626    366.994428475    288.481016115    
317.343941921    342.236362434    350.347092417    341.221531516    339.896022766    
360.390152405    358.531491603    377.163637437    370.051961822    359.827749158    
366.959766742    347.233660294    352.771400272    347.940081705    174.823278449    
195.277992293    209.360935718    267.582149595    242.892256352    305.065971467    
296.603814191    122.532273356    159.971222818    239.51533306    200.289932529    
245.303049132    214.420095809    250.867813175    122.389078994    115.924794176    
145.704782812    109.847552662    106.663231516    146.034740245    199.194481546    
161.757539709    286.092611219    263.898505627    319.738545873    287.830555711    
337.316894469    326.148335183    340.594774557    80.0986804625    162.056933748    
178.177341536    186.292624986    160.287202401    138.914436718    129.211028687    
87.700970786    81.4596324752    54.5514426299    29.9823712218    58.1382399478    
73.0529985015    23.6496375241    50.0660014344    81.7699528847    64.6220756815    
92.2039884422    31.1990853304    53.8142754324    183.554677735    167.659413821    
149.281495727    137.567922582    190.604383929    192.415582323    152.082229858    
131.53553653    223.167834426    217.759392571    259.441988731    264.290730378    
339.634623232    342.834321682    320.307446342    279.129216576    338.28374966    
340.561478136    327.836126177    278.975228118    315.668949715    290.782441886    
315.9051501    287.42932393    264.808093316    252.350293671    343.219410906    
355.278975306    354.60850696    249.14014781    269.329418416    276.134193378    
313.907904674    315.979891015    338.276377986    225.456157493    249.177223733    
348.930796581    334.007170676    327.684834523    280.947711633    235.234056942    
250.301366475    200.664776994    203.833489668    221.81549177    226.713947869    
275.523380913    344.753151611    337.109413404    336.576664037    347.374871013    
337.959033842    315.415122732    294.966227444    334.129751494    335.963406987    
341.966059738    341.864666095    326.618672171    323.850378388    302.474471369    
311.839333779    291.364097323    273.228391753    329.877939695    330.541680983    
329.543279614    302.353463549    314.668851633    281.524490673    258.278070512    
348.397694585    353.304025008    372.736351418    388.647900765    391.65503377    
237.741178562    188.343415903    195.262147472    262.526851252    240.890415737    
256.962613623    191.344374629    197.645186237    245.543607211    237.499440975    
257.160053927    255.174922246    248.939103235    217.350600498    235.614368382    
239.038810385    146.024800639    173.077712099    157.627456393    187.824437994    
132.642612987    150.394190676    143.154151916    213.689087182    191.454142215    
162.385964743    150.407334058    170.596707766    163.888931477    192.07323584    
243.370841623    238.977342282    197.309843153    198.618600223    154.278220178    
153.854131931    187.804849066    201.827384969    164.868193169    192.663909766    
142.551791985    157.640872691    193.765638501    98.4904759048    123.234467044    
108.435096995    163.103859954    141.626656391    273.73060646    310.722270418    
296.49536019    322.857888273    308.594328365    265.294572664    146.576529825    
165.322974249    116.165420756    335.87268404    329.057082814    341.044995858    
329.84718885    332.424325176    319.242313294    321.931967207    349.565135138    
350.890847223    326.370869692    304.014466285    306.556779737    335.722758241    
338.176103796    313.845588481    298.190716351    271.594245895    222.821082066    
256.085393333    236.149859837    210.471142586    265.412623469    282.545967976    
293.329904387    213.053297697    183.689859092    185.739605132    281.575651491    
263.160871227    230.267370257    216.922233841    304.238223208    330.650830257    
330.655891017    334.134419086    300.802639342    309.580876355    303.337186333    
311.51915473    309.647207695    311.6807756    309.253934498    319.131567453    
315.720787743    300.534091391    276.648951465    294.511971461    264.380062703    
221.911031143    257.081486891    261.699473709    211.706050589    336.122366879    
336.412607417    331.164134873    325.175618604    320.954032596    334.702864604    
330.170708572    341.530572643    343.233647583    341.307628012    344.02601396    
344.510475219    339.178464413    333.656095975    326.860330488    337.524944611    
337.01193231    352.904665792    345.860899788    357.501995696    347.696154006    
336.951284553    331.291621745    316.374260403    275.556373289    292.330693476    
263.732916634    277.107353849    297.64067966    292.453230071    322.834825301    
330.842446778    289.540003593    310.361237498    326.390972415    335.750789567    
326.088824414    322.147240055    338.815962599    334.905846192    336.991871156    
332.600340074    318.851799251    304.981766914    298.789644303    337.543178005    
328.24442332    314.877136984    316.905415672    316.904681229    325.991985128    
322.347787932    311.430914503    314.870405579    304.835932259    324.537733954    
315.158166257    309.163450306    322.328781038    302.592449127    327.521464887    
330.724011625    211.471466335    242.94510466    238.510377075    225.24620804    
272.769909612    289.913431027    279.151411772    278.722477539    247.725504617    
324.541579795    322.859448136    328.879473399    337.202547141    271.276186981    
272.906418805    243.889676215    202.70048127    207.808932448    287.066821071    
269.772373781    268.056432963    257.951620501    242.385620947    245.27552395    
240.967394302    242.494087524    253.817313083    255.531355318    265.977055266    
269.008575211    285.496832127    275.453258567    261.838301343    289.002535409    
273.586019782    301.868087587    286.109761385    280.795548628    305.544950025    
300.279084347    278.329815669    276.854745333    285.336801912    278.044640538    
295.779397196    298.633447524    326.204557928    322.674133684    314.734712278    
317.211803884    303.24263261    312.546679717    327.874438467    321.838124361    
331.249355305    325.239750131    322.471167537    323.91653677    331.600598079    
317.559066383    334.472424399    338.689712157    334.614313706    326.149175584    
322.387817499    210.725159595    214.966146076    248.465026679    224.343897635    
201.293798473    217.888916811    195.156588641    266.896886246    277.671809598    
264.661017238    263.351730263    249.735417126    309.401223978    299.498658588    
292.866307094    277.578392806    293.948565223    281.316698697    305.076545525    
311.743143693    273.725510262    284.814603417    239.627998351    239.20415952    
287.995515948    266.347420511    240.784908684    241.469719736    342.504876866    
332.821473901    339.668211327    218.230913389    260.936553083    261.763772867    
248.770241182    246.717362435    252.040756605    248.481323454    212.027317027    
232.970047114    211.350447394    235.88806006    211.223653859    212.755392112    
201.981139546    187.382166496    197.992016305    167.293192305    178.514576687    
133.468135685    172.165799328    180.87176199    151.912250411    146.397747298    
125.593782425    121.623433292    186.751462612    177.82718808    142.382621139    
133.255070368    148.729025192    129.310242972    147.987256883    193.087303542    
308.761774854    299.69721515    313.453679712    306.743055021    311.320749461    
300.595736704    301.920999224    287.272148286    283.674084162    276.570555429    
307.859874221    293.775084894    311.621407171    301.641619227    274.145193686    
264.159809049    283.291342637    302.755373175    284.658368905    276.251733407    
318.340865727    317.078950465    293.315872944    278.725938408    313.060820739    
311.548767855    249.651145204    217.563126459    54.7255709287    69.9681348522    
89.5510093799    109.565031678    306.339138281    312.599009674    110.28300489    
150.728555857    292.36692213    136.390713318    53.2364602388    95.5556934149    
248.712205965    268.478256533    383.910266122    212.220994907    241.636561826    
294.191820584    324.799988049    381.320498935    374.187707282    144.485743568    
157.320814424    351.088657677    350.764826129    294.082838136    270.59481151    
285.723251489    281.145843414    294.608810213    377.986163109    168.866188719    
190.783032018    177.850097336    158.820174008    105.319011962    73.3737543655    
69.4988278592    321.840590033    312.418129648    284.14310705    278.288503858    
333.838450094    334.864994919    208.65349834    222.082987081    331.086261638    
322.795424147    311.898420963    296.256030681    274.31210618    266.018207497    
323.46061118    311.384150749    299.549104335    297.774315149    295.872727547    
292.217562249    205.541277323    219.947007049    327.316755636    330.712784502    
324.139797526    312.906778301    259.985355464    247.857151563    340.55375722    
312.173307107    305.245175285    310.989090728    307.944468217    312.474411983    
335.3341111    327.40689327    324.613337343    329.334379755    345.277022688    
341.250476678    348.389250078    350.281048968    350.737574477    343.434859577    
344.811687184    338.76268871    317.457339706    328.377893961    345.299829651    
326.400016719    319.833292786    358.039418379    355.488725409    368.219593923    
363.058932588    384.667207334    374.074323585    360.243233013    369.456358849    
356.071616283    377.835343025    379.76613754    386.815164547    379.819840442    
393.109644232    366.016986528    352.319564281    394.110253222    383.669108731    
272.514163131    265.619387601    284.523948048    279.690737988    284.736795302    
248.00847855    258.871404191    248.361858601    230.803231551    246.25070949    
240.961816272    218.199619241    225.383759525    249.016552173    231.169527599    
240.62342372    275.508053458    273.71970057    
0.474050824903    0.477234560095    0.47749345692    0.34559394896    0.244897955561    
0.478729154255    0.144212502783    0.477690936506    0.482523497761    0.461631738909    
0.483084257215    0.46173058824    0.440796269983    0.481809010563    0.464097982003    
0.482019313742    0.477780506017    0.478720425021    -0.0141304222985    0.0583993066201    
0.0236125224465    0.355069173073    0.38942729242    0.436527326594    0.469867416976    
0.448632252615    0.428967839142    0.453231177553    0.388360202087    0.411074518526    
0.367522834845    0.388045719904    0.472189006932    0.451570181742    0.436185889085    
0.454865413153    0.394724352613    0.180643088189    0.134157692058    -0.0289364740412    
0.116765352621    0.0860216816777    0.287241585475    0.288092475849    0.338780800203    
0.291234675551    0.316514436231    0.290733780406    0.266404513568    0.385172959283    
0.469189712091    0.450860987307    0.469164874636    0.428866250988    0.448770133203    