Title = " tecplot file for 2D Cavity problem " 
variables = "x", "y", "z", "velX", "cellCentroidY" 
Zone T = "nmesh0" N = 58 E = 77 DATAPACKING = BLOCK, VARLOCATION = ([4-5]=CELLCENTERED),  ZONETYPE=FETRIANGLE 
0.85    0.82219618312    0.8    0.77199475402    0.75    
0.72195093401    0.7    0.67197150816    0.65    0.62193949298    
0.6    0.57236329358    0.55    0.42905991008    0.4    
0.45    0.48437517704    0.5    0.52831468118    0.45334364094    
0.84526518899    0.79400903185    0.74361496428    0.69356203423    0.64373910321    
0.59286509504    0.53807151633    0.49584885187    0.81583309813    0.76505094353    
0.71431985769    0.6649602505    0.61677039554    0.43176589433    0.56805308825    
0.83452260875    0.47747547855    0.52340883677    0.78675489866    0.73380082327    
0.68391918853    0.63574362176    0.59322958088    0.54938968204    0.78320791419    
0.82608162102    0.70295502959    0.65116510576    0.60011687015    0.77998716233    
0.73121963088    0.73540856209    0.67312094014    0.61434151013    0.69489576235    
0.64785825573    0.59668872216    0.62751779272    
1.0    0.95590742877    1.0    0.95593396956    1.0    
0.9564812879    1.0    0.95732543115    1.0    0.95812133767    
1.0    0.9593733532    1.0    0.95479055731    1.0    
1.0    0.95104823121    1.0    0.96511729799    0.90991212793    
0.91187468859    0.91153407609    0.91214185366    0.91379185358    0.91566984216    
0.91696323584    0.91991572278    0.90454059621    0.86742745263    0.86664992287    
0.86930622211    0.87200935229    0.87531587826    0.86644243609    0.8737749857    
0.83043935308    0.86717917706    0.8692125815    0.81742414419    0.8246807162    
0.82685905417    0.83137907541    0.83855543059    0.82039372635    0.76097110423    
0.7357980191    0.78146635348    0.78429570521    0.79467169092    0.70901105062    
0.73541287677    0.67929764752    0.73824985597    0.73897982284    0.69786106312    
0.68999466862    0.68200187547    0.63665376955    
0.0    0.0    0.0    0.0    0.0    
0.0    0.0    0.0    0.0    0.0    
0.0    0.0    0.0    0.0    0.0    
0.0    0.0    0.0    0.0    0.0    
0.0    0.0    0.0    0.0    0.0    
0.0    0.0    0.0    0.0    0.0    
0.0    0.0    0.0    0.0    0.0    
0.0    0.0    0.0    0.0    0.0    
0.0    0.0    0.0    0.0    0.0    
0.0    0.0    0.0    0.0    0.0    
0.0    0.0    0.0    0.0    0.0    
0.0    0.0    0.0    
377.413647552    361.417127329    381.891113534    323.217805394    367.959868042    
384.853592469    336.000584632    372.199484868    386.90787511    344.761161962    
375.025191754    388.320604214    350.803835467    377.113165962    389.569742626    
354.874932183    379.915270255    387.199318772    374.796767173    386.423489028    
378.689406145    391.659445958    359.146772439    355.645507999    314.821554383    
296.016306418    260.040586608    327.074269015    283.065111546    335.46103845    
299.558944891    340.962971238    310.959014241    345.042849095    319.012968289    
323.233407961    342.242310095    337.840474212    316.064066767    319.034340973    
258.813931953    279.061135086    228.247778564    293.821352893    253.481840631    
303.947445029    269.780001258    309.75077147    281.927162665    312.845510173    
290.122054981    307.001598661    306.922481543    285.921406978    229.982386021    
206.229871956    251.718088976    266.15859466    277.199477511    244.491223299    
278.715939769    257.906194645    242.740061268    228.23860231    208.676503003    
222.474943698    143.478834347    158.838594815    149.768356271    158.040288307    
206.129521259    190.473300595    175.145349802    187.432002939    173.810704422    
181.784787685    161.992832982    
0.985230146199    0.970670724839    0.985240413417    0.941041298689    0.970852370139    
0.985468889654    0.941446745449    0.971263740463    0.985820255085    0.942534488537    
0.971739667969    0.986149712756    0.943798294165    0.972371733475    0.986666688895    
0.944892178959    0.974705959102    0.984755163952    0.968497161479    0.983115857483    
0.972093832342    0.98897082674    0.947597275459    0.944339481926    0.926584967985    
0.926425835135    0.896947453662    0.927498851472    0.896630040806    0.92889624336    
0.898365906033    0.930085762224    0.90050945381    0.931650473347    0.902890642579    
0.903804376403    0.926359275727    0.922573402738    0.893701029738    0.897716492347    
0.881915881882    0.882734362913    0.849992929311    0.885084136106    0.853557441828    
0.887687819647    0.855931566224    0.888696659791    0.859493257256    0.888605431801    
0.863015659707    0.881488139884    0.880070662296    0.853268698764    0.836197991644    
0.838084657973    0.840344959873    0.843532665252    0.84862445767    0.813827805989    
0.844080193814    0.820995848042    0.803316836104    0.797522770594    0.76800707345    
0.772049335555    0.734957997235    0.735329969782    0.70806104649    0.705057170916    
0.75348021576    0.751261161284    0.724568964351    0.722589132734    0.708835889059    
0.704452769245    0.669158510707    
3     2     1     
3     2     4     
3     4     5     
4     2     22     
5     4     6     
5     6     7     
6     4     23     
7     6     8     
7     8     9     
8     6     24     
9     8     10     
9     10     11     
10     8     25     
11     10     12     
11     12     13     
12     10     26     
13     12     19     
14     16     15     
14     16     17     
17     16     18     
17     18     19     
13     19     18     
19     12     27     
17     19     27     
4     22     23     
22     2     21     
22     21     29     
6     23     24     
23     22     30     
8     24     25     
24     23     31     
10     25     26     
25     24     32     
12     26     27     
26     25     33     
27     26     35     
17     27     28     
20     28     17     
20     28     37     
28     27     38     
22     29     30     
23     30     31     
30     29     39     
24     31     32     
31     30     40     
25     32     33     
32     31     41     
26     33     35     
33     32     42     
27     35     38     
35     33     43     
37     20     34     
37     28     38     
38     35     44     
30     39     40     
39     29     36     
31     40     41     
32     41     42     
33     42     43     
42     41     48     
35     43     44     
43     42     49     
42     48     49     
48     41     47     
48     47     53     
49     48     54     
45     50     46     
45     50     51     
51     50     52     
51     52     55     
48     53     54     
53     47     51     
53     51     55     
54     53     56     
53     55     56     
54     56     57     
57     56     58     

