Title = " tecplot file for 2D Cavity problem " 
variables = "x", "y", "z", "velX", "cellCentroidY" 
Zone T = "nmesh0" N = 86 E = 233 DATAPACKING = BLOCK, VARLOCATION = ([4-5]=CELLCENTERED), ZONETYPE=FETETRAHEDRON
0.23262767273    0.3    0.24682008018    0.2    0.050808641656    
-0.035402467434    0.049179657707    0.0    0.1    0.13323196877    
0.14898078702    -0.047222460383    -0.1    0.33682557706    0.34441498948    
0.4    0.21797369421    0.16411380728    0.25717960571    0.076829195023    
0.048075954435    0.22335318204    0.26937237382    0.32758430144    -0.0798689574    
-0.068677297262    -0.14568896865    -0.090018058647    -0.0081998756346    -0.0096004065126    
0.13554979869    0.096038199961    0.19503767234    0.099135915325    0.053428890811    
0.0048525476329    0.0098382532597    -0.02876667971    0.14771813154    0.1781591624    
0.15922263008    0.23970503818    -0.060991029216    0.0074519892223    0.057757489939    
0.32309466119    0.365768224    0.29376521122    0.31472048163    0.10382794224    
0.19872111082    0.10164710879    -0.029528370127    -0.11857869927    0.00073439249536    
-0.072128616273    0.084975063801    0.13032715471    0.3462074995    0.23858314753    
0.17613555491    0.094177126884    -0.078038915992    0.35711050034    0.28339627385    
0.26911845803    0.28886640072    0.1826480031    0.17064832151    0.23321388662    
-0.026364712045    0.036933004856    -0.03245934844    0.03991298005    -0.011179689318    
0.092651598155    0.033830851316    0.21098193526    0.11566399038    0.10168384761    
-0.052821282297    0.10625118017    0.18599182367    0.015071149915    0.0025002514012    
0.0041586537845    
-0.5    -0.5    -0.4161304591    -0.5    -0.41729287326    
-0.5    -0.5    -0.5    -0.5    -0.5    
-0.41665591559    -0.41486208818    -0.5    -0.5    -0.41865150848    
-0.5    -0.40988913178    -0.5    -0.5    -0.42388322949    
-0.5    -0.5    -0.41450357437    -0.5    -0.41088786721    
-0.5    -0.41208065577    -0.32515165815    -0.5    -0.40420889854    
-0.249083151    -0.28295254707    -0.32958842445    -0.33611266694    -0.26366178696    
-0.33351694239    -0.27894175053    -0.23964649146    -0.36078566313    -0.21658487618    
-0.16723185952    -0.23343964193    -0.13304965671    -0.12737318873    -0.1695197161    
-0.5    -0.41408312321    -0.33294400704    -0.39530804753    -0.5    
-0.40320238471    -0.40012854338    -0.41277977824    -0.5    -0.37224984169    
-0.19458571076    -0.18677288294    -0.070420141154    -0.4233904779    -0.35075074434    
-0.29557338357    -0.10807587951    -0.31538873911    -0.33833616972    -0.39243045449    
-0.32002750039    -0.3071628511    -0.37649872899    -0.17579731345    -0.24114374816    
-0.097555346787    -0.32322400808    -0.32711231709    -0.27410635352    -0.3218523562    
-0.32291978598    -0.18507558107    -0.26491120458    -0.31831282377    -0.18898910284    
-0.21266616881    -0.23511433601    -0.16343681514    -0.20733688772    -0.27010452747    
-0.19605831802    
0.41295273957    0.5    0.5    0.5    0.5    
0.41677370705    0.43233139492    0.5    0.5    0.41644486206    
0.5    0.5    0.5    0.40009930847    0.5    
0.5    0.35656905174    0.3264322115    0.33032219433    0.39596351981    
0.33911429504    0.23122514052    0.28225055337    0.28520432503    0.38608124852    
0.32759987319    0.5    0.5    0.23586175998    0.30085864663    
0.5    0.42297139764    0.5    0.5    0.5    
0.5    0.41858780384    0.5    0.41957616806    0.41400375962    
0.5    0.5    0.5    0.39857259393    0.5    
0.17554486258    0.21054162085    0.5    0.39988803864    0.23903066386    
0.20914195478    0.28946328163    0.20995981991    0.23831385826    0.41463178396    
0.41507530212    0.40738597512    0.5    0.32320696115    0.42278346419    
0.31063428521    0.31131532788    0.4012170732    0.25312331319    0.19843269885    
0.30204477906    0.20843856037    0.28757441044    0.32023024559    0.34980875254    
0.28269585967    0.17034308612    0.25056269765    0.28136381507    0.33971264958    
0.33961439133    0.32316887379    0.23166464269    0.23589520156    0.2219312489    
0.32793805003    0.33583557606    0.21694633365    0.17704497278    0.21634921432    
0.26334768534    
399.666163535    399.894507152    399.742038941    399.426311832    399.763295829    
399.718518286    399.902880605    399.670735789    399.863241241    399.722310875    
399.186041137    399.336473431    399.515501455    399.850050033    399.492670456    
399.262633054    399.788715073    399.942506264    399.088277602    399.411620286    
398.871613325    398.713909741    399.391531395    398.688886849    399.111608011    
398.647138922    399.450171305    399.736495484    398.565417533    398.032665531    
398.680491147    399.514550809    399.757014309    399.634703818    399.011919531    
399.329345851    399.169649336    399.343479298    399.002342255    398.791313679    
398.366644684    397.802757322    398.586316652    399.568793741    398.915884239    
399.258835706    398.730545787    398.810978853    399.201026127    399.189647371    
398.063709667    398.597199985    398.112239539    397.801278603    398.251550633    
397.969365753    399.061772546    398.496340283    399.130300366    398.918357189    
397.548922555    398.25353111    397.900992999    398.40512205    397.665900026    
396.581073488    396.349957456    397.545612595    398.886664066    399.250729353    
398.92770764    397.985457987    397.50882557    398.596084321    397.32929958    
397.456413856    395.387419159    398.853977077    398.662808932    397.030552753    
398.101546323    396.56058975    395.993741328    397.406185314    395.984779825    
399.544705963    399.764363589    399.335008236    398.736837958    398.924230318    
399.791528064    399.692995727    399.349608516    399.321656461    397.920872663    
398.876707184    396.662419729    396.570348652    397.601657898    398.776214874    
399.045494973    396.254439576    396.584416944    394.060953699    397.91036679    
397.382291407    395.727594908    397.947013312    399.205160247    398.818757507    
399.403693576    399.081197923    398.557280647    398.353411973    396.384363711    
396.539486581    391.639136001    394.325232662    395.49792959    394.707945386    
398.417946076    397.399942879    398.514035566    393.751460842    397.801289133    
393.44274253    391.149206855    399.628740977    398.541386876    397.489120295    
397.654735833    397.769546305    398.459158583    399.658720438    399.550259983    
399.272068233    395.928863866    397.309515016    393.755978567    395.230574165    
396.360756458    396.100955562    396.067463603    395.396563347    395.617483537    
398.978462916    396.427223718    393.229781611    397.302814772    397.158469043    
396.411080501    395.881114659    397.880258285    399.108074595    398.827216024    
395.692791376    395.402295004    394.824201813    395.517856569    393.666187032    
395.847711001    396.539553581    393.777177715    397.699858236    393.545402364    
395.824585482    395.398286805    397.383623228    392.564729536    391.592657893    
393.036725828    393.20960918    392.080597254    393.78695715    392.848273161    
395.012419771    390.358559297    393.916798016    395.583068836    393.107982802    
392.246198009    391.244198146    396.688600427    393.542786969    396.692533462    
392.581648376    393.627690418    393.672025851    393.109820967    383.879124631    
381.483362027    379.154702611    386.561165444    391.173978793    390.295495072    
387.133883623    392.04684345    389.750070109    387.478166575    392.639851334    
394.192033826    388.192557259    391.891618564    389.609243698    392.946239678    
389.52793359    391.42394665    391.055991282    388.588663151    388.254326903    
382.048876924    390.649435596    386.171819691    390.160056182    390.978705812    
391.42819301    387.569408762    384.804494521    384.300624572    387.823048787    
381.619836759    380.929699907    388.038849257    384.644927096    386.628462743    
385.372236134    386.436902577    385.993393345    383.212937967    381.498126826    
384.266785005    398.636506243    386.502067219    
-0.452177310802    -0.478762865989    -0.457356830058    -0.458177981481    -0.478034970042    
-0.457041116173    -0.47854476165    -0.458865402056    -0.478830087114    -0.478281730016    
-0.454284522598    -0.42205713707    -0.45839897069    -0.478279775557    -0.455762883252    
-0.427480199752    -0.453405458415    -0.479836875548    -0.420816983035    -0.476591374951    
-0.424327857076    -0.456167248059    -0.476637217745    -0.456093418944    -0.450063840676    
-0.456039239923    -0.48105240744    -0.480938391934    -0.424674905662    -0.43311885328    
-0.45594416115    -0.480499900043    -0.480182949512    -0.439417570305    -0.426117692676    
-0.398771209722    -0.47801860187    -0.47823023049    -0.459117254704    -0.453732392938    
-0.454410770795    -0.427366675809    -0.437888066061    -0.434294246181    -0.425454593404    
-0.390726711583    -0.367836385799    -0.475031025481    -0.475927756588    -0.474994201682    
-0.451482200483    -0.452908977711    -0.422882538891    -0.431648681863    -0.427201258199    
-0.270487095336    -0.29959927877    -0.327015443001    -0.283203437246    -0.30459741425    
-0.244113623718    -0.33106046655    -0.290289425994    -0.279109397292    -0.292351961721    
-0.240545528233    -0.25149143298    -0.317807990765    -0.36507946556    -0.360797222714    
-0.385257513321    -0.351711298745    -0.29579256319    -0.385835268015    -0.399102824069    
-0.31066353114    -0.288594419224    -0.257384981477    -0.216878301459    -0.20465342153    
-0.281291424078    -0.23341723176    -0.181632815089    -0.16708473855    -0.173178750157    
-0.472063975698    -0.472585264592    -0.455680374624    -0.433046757222    -0.41610419868    
-0.432130531683    -0.390670320441    -0.374435119756    -0.418103596985    -0.449943440703    
-0.474965559393    -0.386331163137    -0.377523323315    -0.42465013966    -0.474283564394    
-0.474527599427    -0.388270073094    -0.429824201625    -0.38580993509    -0.455002625728    
-0.324876486821    -0.316052118257    -0.353929574991    -0.365155430641    -0.386498427276    
-0.384930043391    -0.430571816815    -0.358667147598    -0.378657648319    -0.380072469644    
-0.378110354998    -0.20405630588    -0.20946541523    -0.256695296146    -0.207304817398    
-0.193275780714    -0.147626086028    -0.216594697664    -0.230808923    -0.214446920775    
-0.245528855123    -0.196587401632    -0.480600415016    -0.43774323789    -0.390524509515    
-0.385973439348    -0.397626490555    -0.432056571826    -0.357591213618    -0.378846360174    
-0.310270713612    -0.303245351714    -0.368016882627    -0.258095195944    -0.31557219506    
-0.35264202906    -0.343418947056    -0.359488672801    -0.27917872638    -0.322098303228    
-0.347449592602    -0.355434876916    -0.250922416625    -0.389483419885    -0.373116190622    
-0.365443456094    -0.380987076718    -0.429027118303    -0.472107630185    -0.453065175858    
-0.349951911856    -0.303606897254    -0.355179543115    -0.340272972621    -0.326342479483    
-0.377970512116    -0.379301623134    -0.339104937789    -0.426840294829    -0.314444515788    
-0.364947550465    -0.34025949793    -0.423655858276    -0.280134735463    -0.232005167972    
-0.332015730503    -0.351584961163    -0.332292753868    -0.351250701588    -0.280153723312    
-0.324015889123    -0.282025458274    -0.331926880973    -0.356248913169    -0.299032325194    
-0.277436287152    -0.269378528181    -0.35040687226    -0.279634658501    -0.348446768823    
-0.328942813399    -0.283812209111    -0.353238791743    -0.328760017337    -0.154082368748    
-0.128083717645    -0.14287966675    -0.150906497605    -0.223104667467    -0.202582528795    
-0.177308700224    -0.313889321541    -0.242985556843    -0.229567992092    -0.338805092184    
-0.373917745292    -0.264706301152    -0.343271667341    -0.298818105336    -0.366942745579    
-0.310805158072    -0.292935817299    -0.287789954762    -0.257935633369    -0.269083744591    
-0.170727153785    -0.244765337672    -0.220173985648    -0.2398460934    -0.20318085221    
-0.231439323424    -0.174533573189    -0.176617827508    -0.178935871458    -0.223678890124    
-0.158371241018    -0.16806955444    -0.253085355919    -0.211816772027    -0.261406295759    
-0.19985938422    -0.238446483198    -0.272571332708    -0.246526547594    -0.214950875005    
-0.230823610603    -0.302793344641    -0.218588213405    
1     2     3     49     
3     2     1     4     
1     3     4     11     
5     6     7     20     
7     6     5     8     
5     8     6     12     
5     7     8     9     
9     5     7     20     
10     11     4     9     
4     11     10     1     
1     11     10     17     
1     3     11     60     
10     11     9     20     
6     12     8     13     
13     6     12     25     
5     12     6     55     
2     14     15     49     
15     14     2     16     
11     17     1     60     
10     1     17     18     
10     17     11     39     
18     17     10     20     
1     17     18     19     
19     17     18     23     
1     17     19     49     
18     20     21     52     
21     20     18     10     
10     21     20     7     
10     20     17     39     
18     17     20     52     
21     20     6     30     
6     20     21     7     
10     7     20     9     
9     5     20     11     
10     11     20     39     
5     20     11     34     
22     23     19     18     
19     23     22     24     
24     19     23     59     
24     23     22     65     
22     23     18     51     
18     23     17     68     
19     17     23     59     
13     25     12     27     
6     12     25     55     
27     25     12     28     
28     25     12     63     
29     30     26     54     
26     30     29     21     
21     26     30     6     
21     30     29     52     
6     26     30     25     
25     30     6     55     
20     30     21     52     
6     30     20     55     
31     32     33     40     
33     32     31     34     
34     33     32     39     
34     32     31     35     
35     34     32     36     
35     32     31     57     
36     34     32     55     
36     32     35     37     
36     37     35     38     
38     36     37     63     
38     37     35     57     
35     37     32     57     
36     32     37     55     
33     39     11     60     
11     39     33     34     
34     11     39     20     
34     39     32     20     
33     32     39     40     
11     39     17     60     
17     39     20     52     
33     40     39     60     
32     39     40     61     
31     42     40     33     
40     42     31     41     
31     40     41     57     
42     40     33     60     
32     40     31     57     
38     45     44     57     
44     45     38     43     
38     44     43     56     
1     49     19     14     
14     1     49     2     
14     49     19     59     
19     49     17     59     
1     17     49     60     
3     15     49     2     
49     15     3     48     
3     49     48     60     
1     49     3     60     
18     50     51     52     
51     50     18     22     
39     52     17     68     
20     52     39     76     
17     52     18     68     
50     52     21     29     
21     52     50     18     
20     30     52     76     
29     52     30     53     
30     53     52     73     
29     53     30     54     
36     55     37     63     
32     37     55     76     
32     55     34     20     
36     34     55     5     
5     34     55     20     
5     55     36     12     
5     20     55     6     
12     55     36     63     
12     25     55     63     
20     55     30     76     
30     55     25     75     
44     56     37     81     
37     56     44     38     
38     37     56     63     
38     44     37     57     
45     41     57     31     
57     41     45     58     
31     57     45     35     
32     40     57     82     
35     57     45     38     
32     57     37     82     
37     57     44     77     
19     59     24     14     
24     59     23     47     
17     23     59     66     
17     59     49     66     
23     47     59     64     
23     24     47     65     
3     60     48     33     
33     3     60     11     
33     60     48     42     
39     60     40     61     
17     49     60     66     
32     61     40     82     
39     61     32     76     
60     61     39     17     
17     60     61     66     
17     61     39     68     
40     61     60     70     
37     63     55     75     
12     28     63     36     
25     55     63     75     
56     63     37     81     
23     47     64     65     
23     64     59     66     
23     65     64     66     
51     65     23     66     
23     65     51     22     
24     46     65     22     
65     46     24     47     
17     66     61     68     
60     61     66     70     
65     66     51     67     
67     65     66     64     
67     66     51     78     
51     66     23     68     
23     68     66     17     
51     66     68     78     
51     68     23     18     
61     68     66     78     
52     68     39     76     
39     68     61     76     
18     68     52     51     
61     66     70     78     
61     70     40     69     
30     73     74     75     
74     73     30     52     
52     74     73     79     
52     30     74     76     
63     75     37     81     
55     37     75     76     
74     75     73     81     
30     75     74     76     
55     75     30     76     
74     76     75     37     
37     74     76     82     
37     75     74     81     
32     76     55     20     
37     76     32     82     
20     32     76     39     
52     76     74     79     
32     76     61     82     
68     76     52     79     
61     76     68     79     
44     77     71     81     
71     77     44     62     
62     71     77     86     
62     77     44     57     
57     77     37     82     
44     37     77     81     
62     77     57     82     
61     68     78     79     
78     70     61     69     
61     78     69     80     
78     79     68     51     
51     79     68     52     
61     79     78     80     
52     79     73     72     
74     73     79     85     
72     73     52     53     
72     79     73     85     
61     76     79     82     
74     79     76     82     
61     79     80     82     
73     74     81     85     
71     81     77     86     
74     82     37     77     
74     82     77     80     
37     74     77     81     
57     82     40     69     
40     82     61     69     
57     82     69     62     
62     82     69     80     
62     77     82     80     
80     82     69     61     
62     80     69     83     
62     77     80     86     
74     82     80     79     
77     74     80     86     
79     80     74     85     
69     83     80     78     
74     81     85     86     
80     72     85     79     
85     72     80     84     
80     85     84     86     
74     85     80     86     
63     38     36     28     
77     81     74     86     

