Title = " tecplot file for 2D Cavity problem " 
variables = "x", "y", "z", "velX", "cellCentroidY" 
Zone T = "nmesh0" N = 91 E = 234 DATAPACKING = BLOCK, VARLOCATION = ([4-5]=CELLCENTERED),  ZONETYPE=FETETRAHEDRON 
0.23262767273    0.3    0.24682008018    0.2    0.13323196877    
0.14898078702    0.1    0.41387764401    0.5    0.5    
0.5    0.5    0.41298543705    0.5    0.4    
0.42951665674    0.34441498948    0.33682557706    0.5    0.41069173813    
0.42138621211    0.40325324194    0.40966212749    0.5    0.21797369421    
0.16411380728    0.25717960571    0.076829195023    0.22335318204    0.26937237382    
0.32758430144    0.13554979869    0.096038199961    0.19503767234    0.3348266298    
0.28943228722    0.29376521122    0.23970503818    0.14771813154    0.1781591624    
0.15922263008    0.13032715471    0.17495837808    0.23184024665    0.23532533421    
0.29551333189    0.32544157873    0.32577306634    0.4108916223    0.40371522307    
0.41642519832    0.41279682517    0.31472048163    0.10382794224    0.10141577572    
0.19872111082    0.10164710879    0.17347851396    0.084975063801    0.0098382532597    
0.26084318757    0.35665869713    0.3462074995    0.23858314753    0.17613555491    
0.094177126884    0.30632644892    0.35427135229    0.31388688087    0.25505360961    
0.35711050034    0.28339627385    0.26911845803    0.1826480031    0.17064832151    
0.23321388662    0.23224464059    0.03991298005    0.092651598155    0.033830851316    
0.21098193526    0.11566399038    0.33427661657    0.29253688455    0.10168384761    
0.2496945262    0.27424177527    0.10625118017    0.18599182367    0.0041586537845    
0.19189736247    
-0.5    -0.5    -0.4161304591    -0.5    -0.5    
-0.41665591559    -0.5    -0.23585693143    -0.23367045597    -0.2    
-0.3    -0.13285262229    -0.13556582845    -0.1    -0.5    
-0.5    -0.41865150848    -0.5    -0.16930403225    -0.22086502612    
-0.39498844743    -0.33947356405    -0.075761467218    -0.062441547325    -0.40988913178    
-0.5    -0.5    -0.42388322949    -0.5    -0.41450357437    
-0.5    -0.249083151    -0.28295254707    -0.32958842445    -0.26361706724    
-0.27666690946    -0.33294400704    -0.23343964193    -0.36078566313    -0.21658487618    
-0.16723185952    -0.070420141154    -0.11895859987    -0.0081041377747    -0.11922379789    
-0.12080962956    -0.068760257322    -0.17444483602    -0.30066591501    -0.27180847526    
-0.15736581385    -0.13690534234    -0.39530804753    -0.5    -0.40612122416    
-0.40320238471    -0.40012854338    -0.0076216747984    -0.18677288294    -0.27894175053    
-0.19807839394    -0.33376443386    -0.4233904779    -0.35075074434    -0.29557338357    
-0.10807587951    -0.096046172082    -0.19139400125    -0.20667153597    -0.1914806515    
-0.33833616972    -0.39243045449    -0.32002750039    -0.37649872899    -0.17579731345    
-0.24114374816    -0.034587264061    -0.27410635352    -0.32291978598    -0.18507558107    
-0.26491120458    -0.31831282377    -0.26527518034    -0.2065640837    -0.18898910284    
-0.14747670293    -0.11606113613    -0.23511433601    -0.16343681514    -0.19605831802    
-0.10078287125    
0.41295273957    0.5    0.5    0.5    0.41644486206    
0.5    0.5    0.5    0.41281632651    0.5    
0.5    0.41311979077    0.5    0.5    0.5    
0.42846004317    0.5    0.40009930847    0.32438040068    0.35631603003    
0.39143767953    0.5    0.38591915369    0.32777533286    0.35656905174    
0.3264322115    0.33032219433    0.39596351981    0.23122514052    0.28225055337    
0.28520432503    0.5    0.42297139764    0.5    0.5    
0.40753877163    0.5    0.5    0.41957616806    0.41400375962    
0.5    0.5    0.40546107292    0.5    0.5    
0.41370847821    0.5    0.5    0.41144129634    0.28518301249    
0.41570726037    0.31529143453    0.39988803864    0.23903066386    0.17772006989    
0.20914195478    0.28946328163    0.4051745832    0.40738597512    0.41858780384    
0.42512899637    0.34032797813    0.32320696115    0.42278346419    0.31063428521    
0.31131532788    0.30213648081    0.25247895718    0.34214761853    0.26416516304    
0.25312331319    0.19843269885    0.30204477906    0.28757441044    0.32023024559    
0.34980875254    0.32898157835    0.28136381507    0.33961439133    0.32316887379    
0.23166464269    0.23589520156    0.25363692641    0.16002696753    0.2219312489    
0.34429103136    0.22223295271    0.33583557606    0.21694633365    0.26334768534    
0.32066789269    
399.666163535    399.894507151    399.742038939    399.863241238    399.72231087    
399.186041123    399.336473426    399.51550144    399.520767041    399.857084513    
399.481471965    399.70576148    399.788715073    399.942506265    399.924192874    
399.807843266    399.666420558    399.088277593    399.411620275    398.8716133    
399.391531386    398.688886832    399.111608008    399.011919501    399.169649321    
399.343479288    399.002342249    398.791313658    398.366644651    397.80275729    
398.586316644    398.814849372    399.046758942    398.695982722    398.492422437    
398.596084308    397.456413864    397.508825567    395.387419159    397.969365745    
398.101546337    398.853977079    394.583966828    396.903940231    397.633203548    
396.558926854    398.759496724    397.299838842    391.852891376    395.241442112    
398.589603826    397.905638707    397.866692813    399.457337653    399.58658005    
399.233141996    398.247272065    398.718626295    397.59293896    398.82542824    
397.933782147    398.615688961    397.510448258    398.489125503    396.945556373    
398.93332387    399.297716444    399.65059335    398.254771472    399.133814602    
397.851772568    399.293173024    397.419926561    396.889093564    397.756536297    
398.11655552    399.076928854    399.645795662    398.707890133    397.585026202    
394.691720643    394.574172566    391.784682363    395.899253095    398.142114276    
398.547467339    399.306475279    399.586025771    399.622176208    398.761530928    
399.692995729    399.544705962    399.764363589    399.335008235    398.736837955    
398.924230318    399.791528065    399.349608522    399.32165646    399.37653927    
397.92087261    396.873740586    387.357967551    397.69340445    397.234235793    
397.510653763    395.30314519    392.292352114    398.640940054    395.69380831    
392.557446111    399.180378673    399.181101016    395.551956191    398.670803613    
397.170608015    397.76751314    396.782680307    396.402207143    397.574054354    
399.628740974    397.489120294    397.654735841    397.10227513    399.65872044    
399.550259981    399.27206824    396.108581927    395.928863882    398.886664059    
397.309515035    393.755978571    395.230574143    396.360756455    396.100955579    
396.067463581    395.396563384    392.167368163    391.449947234    389.396259918    
388.789241553    391.20044587    394.704722377    390.514759895    395.641979586    
392.782526879    396.463037309    395.883463945    395.55436492    394.727750775    
395.88111463    397.880258243    395.137930118    395.000392687    395.692791368    
395.402295052    395.891092606    397.128627026    396.411080502    397.158469044    
395.797406004    395.847710963    396.539553562    393.777177674    397.699858197    
393.545402334    395.824585434    396.662419676    397.601657852    395.398286766    
397.383623177    387.778634681    390.828295083    390.559507522    390.978705869    
384.794422988    387.569408849    393.507170447    392.564729569    392.75822863    
392.773916807    391.592657939    387.467932086    393.627690395    393.672025791    
393.10982091    392.046843385    391.005601226    388.889386448    389.750070154    
389.030471545    385.821908466    387.478166539    392.196298115    392.639851235    
394.192033726    388.192557205    392.581648336    391.423946605    391.055991226    
391.702677213    394.14670749    390.492783113    396.290548412    388.588663112    
386.629278267    385.952279627    391.097760068    387.128294549    385.728951019    
383.761758206    384.774143502    393.542786929    392.246197951    393.442742489    
390.649435524    386.171819666    391.173978739    393.751460841    387.133883671    
391.428193043    384.804494539    384.300624578    387.823048765    380.929699934    
388.038849209    384.644927087    385.016594668    383.423543008    383.369003369    
388.958851805    381.505344498    382.99535446    380.633544362    
-0.452177310802    -0.478762865989    -0.457356830058    -0.478830087114    -0.478281730016    
-0.454284522598    -0.42205713707    -0.45839897069    -0.206159068447    -0.243277257539    
-0.15710676972    -0.143026163949    -0.453405458415    -0.479836875548    -0.478210588293    
-0.45155013019    -0.428090526498    -0.420816983035    -0.476591374951    -0.424327857076    
-0.476637217745    -0.456093418944    -0.450063840676    -0.426117692676    -0.47801860187    
-0.47823023049    -0.459117254704    -0.453732392938    -0.454410770795    -0.427366675809    
-0.437888066061    -0.293834555609    -0.276135273439    -0.297253653401    -0.243713701435    
-0.385835268015    -0.31066353114    -0.29579256319    -0.288594419224    -0.270487095336    
-0.281291424078    -0.257384981477    -0.0902178778285    -0.0785666678294    -0.1179943803    
-0.151545956996    -0.120911345606    -0.0784723015389    -0.0644246032548    -0.138690024829    
-0.124319546252    -0.152903682495    -0.146659791055    -0.309385009123    -0.285405686331    
-0.3429003117    -0.26470077333    -0.326795030154    -0.281866545798    -0.254461075861    
-0.230491217226    -0.219947321573    -0.125598994349    -0.123921539613    -0.121263058325    
-0.194992467858    -0.174527050914    -0.181362331943    -0.149108680686    -0.213193882066    
-0.170864840125    -0.177043757424    -0.162845317496    -0.215956664515    -0.220988056946    
-0.19823709928    -0.205500226561    -0.182628505048    -0.12416896573    -0.102475114447    
-0.123224055104    -0.15531574238    -0.107456033566    -0.179513078088    -0.32597597751    
-0.33875243755    -0.358333006838    -0.386735392038    -0.370898837137    -0.356592875114    
-0.390670320441    -0.472063975698    -0.472585264592    -0.455680374624    -0.433046757222    
-0.41610419868    -0.432130531683    -0.374435119756    -0.418103596985    -0.429358515691    
-0.449943440703    -0.427819599916    -0.0716065261293    -0.203308769917    -0.232639077567    
-0.268816810366    -0.233489277056    -0.146013642956    -0.179006376904    -0.173900042907    
-0.169431402161    -0.180204979995    -0.217470103065    -0.170924060928    -0.386797528875    
-0.33109502945    -0.28218665823    -0.260925391532    -0.258666448583    -0.367855303001    
-0.480600415016    -0.390524509515    -0.385973439348    -0.335517639472    -0.357591213618    
-0.378846360174    -0.310270713612    -0.272195609159    -0.303245351714    -0.36507946556    
-0.368016882627    -0.258095195944    -0.31557219506    -0.35264202906    -0.343418947056    
-0.359488672801    -0.27917872638    -0.140176588094    -0.156963710412    -0.170182447006    
-0.160505346982    -0.213567447207    -0.20197494219    -0.14256600342    -0.208243295261    
-0.168714269242    -0.207620020919    -0.283747202531    -0.268876748281    -0.2303640702    
-0.380987076718    -0.429027118303    -0.280377628326    -0.262262853705    -0.349951911856    
-0.303606897254    -0.298695875135    -0.354643963176    -0.365443456094    -0.373116190622    
-0.31427067152    -0.377970512116    -0.379301623134    -0.339104937789    -0.426840294829    
-0.314444515788    -0.364947550465    -0.386331163137    -0.42465013966    -0.34025949793    
-0.423655858276    -0.14738904715    -0.17423673573    -0.165014736036    -0.20318085221    
-0.125831169548    -0.174533573189    -0.258524118151    -0.280134735463    -0.200083824247    
-0.198207503726    -0.232005167972    -0.103288051704    -0.283812209111    -0.353238791743    
-0.328760017337    -0.313889321541    -0.242321915001    -0.218979915246    -0.242985556843    
-0.189510663704    -0.199300939633    -0.229567992092    -0.271289824377    -0.338805092184    
-0.373917745292    -0.264706301152    -0.328942813399    -0.292935817299    -0.287789954762    
-0.226939426519    -0.232936343318    -0.196907503514    -0.302662931388    -0.257935633369    
-0.0980667175774    -0.154848469161    -0.194958904756    -0.136139379488    -0.100471192923    
-0.0940909181836    -0.133709551526    -0.279634658501    -0.277436287152    -0.245528855123    
-0.244765337672    -0.220173985648    -0.223104667467    -0.230808923    -0.177308700224    
-0.231439323424    -0.176617827508    -0.178935871458    -0.223678890124    -0.16806955444    
-0.253085355919    -0.211816772027    -0.206959820282    -0.157637309479    -0.169936436258    
-0.232698702429    -0.141304656926    -0.125906915098    -0.136828633607    
1     2     3     53     
3     2     1     4     
1     3     4     6     
5     6     4     7     
4     6     5     1     
1     6     5     25     
1     3     6     64     
5     6     7     28     
8     9     10     51     
10     9     8     11     
12     13     10     51     
10     13     12     14     
2     18     17     53     
17     18     2     15     
15     17     18     16     
17     18     16     21     
18     21     17     53     
6     25     1     64     
5     1     25     26     
5     25     6     39     
1     25     26     27     
27     25     26     30     
1     25     27     53     
5     6     28     39     
29     30     27     26     
27     30     29     31     
31     27     30     63     
31     30     29     72     
29     30     26     56     
26     30     25     74     
27     25     30     63     
35     36     37     49     
37     36     35     38     
38     37     36     64     
38     36     35     61     
6     39     25     64     
34     40     39     64     
39     40     34     33     
33     39     40     65     
33     40     34     32     
38     40     34     64     
34     40     38     32     
45     44     43     46     
43     44     45     42     
45     43     42     41     
45     43     41     61     
45     47     46     48     
46     47     45     44     
43     46     44     58     
45     46     43     61     
48     47     46     13     
48     46     45     61     
13     46     48     51     
35     49     37     22     
22     35     49     8     
22     49     37     53     
36     49     35     20     
37     49     36     53     
36     49     20     62     
35     20     49     8     
35     36     20     51     
35     20     8     51     
23     51     12     52     
12     51     23     13     
13     51     23     46     
19     51     9     20     
9     51     19     12     
12     9     51     10     
12     51     19     52     
20     51     9     8     
19     51     20     52     
48     13     51     8     
48     51     46     61     
20     51     36     69     
35     36     51     61     
35     51     48     61     
48     51     35     8     
8     13     51     10     
12     52     19     24     
24     12     52     23     
51     52     23     46     
51     52     46     69     
23     46     52     67     
20     52     51     69     
36     53     49     62     
37     53     36     64     
22     53     21     49     
21     53     22     17     
17     53     22     37     
21     49     53     62     
37     17     53     3     
1     53     27     18     
18     1     53     2     
18     53     27     63     
27     53     25     63     
1     25     53     64     
3     17     53     2     
3     53     37     64     
1     53     3     64     
18     21     53     63     
54     57     56     26     
56     57     54     55     
46     58     43     77     
40     61     38     41     
38     61     40     36     
36     40     38     64     
36     61     40     76     
43     61     46     86     
41     45     61     38     
41     61     43     40     
40     61     43     86     
45     61     38     48     
48     61     38     35     
46     61     51     69     
21     62     53     63     
36     53     62     73     
20     62     49     50     
36     62     20     69     
20     62     50     69     
53     63     62     73     
27     63     31     18     
25     30     63     73     
25     63     53     73     
36     64     53     73     
3     64     37     34     
34     3     64     6     
34     64     37     38     
36     40     64     76     
39     64     40     65     
34     64     39     6     
25     53     64     73     
33     65     40     88     
39     65     33     79     
64     65     39     25     
25     64     65     73     
25     65     39     74     
40     65     64     76     
46     52     67     69     
68     69     67     52     
67     69     68     70     
70     67     69     86     
70     69     68     83     
68     69     52     50     
46     69     67     86     
20     52     69     50     
61     69     46     86     
51     69     61     36     
36     62     69     73     
50     69     62     83     
36     69     61     76     
56     72     30     73     
30     72     56     29     
69     73     62     83     
36     73     69     76     
25     73     65     74     
64     65     73     76     
36     64     73     76     
62     73     63     71     
71     73     30     72     
30     73     71     63     
62     73     71     83     
56     73     30     74     
30     74     73     25     
56     73     74     81     
56     74     30     26     
65     74     73     81     
57     74     39     79     
39     74     57     25     
25     74     57     26     
39     74     65     79     
26     74     57     56     
59     75     43     66     
43     75     59     40     
40     43     75     86     
40     75     59     88     
66     75     43     91     
59     75     66     88     
69     76     73     83     
65     73     76     81     
40     76     61     86     
61     76     69     86     
65     76     40     75     
43     46     77     86     
33     79     65     88     
74     79     57     82     
65     79     74     82     
65     74     81     82     
70     81     76     83     
76     81     70     75     
75     76     81     65     
75     70     76     86     
75     81     70     89     
65     81     75     85     
73     76     81     83     
81     82     74     56     
56     82     74     57     
65     82     81     85     
57     82     79     78     
65     79     82     88     
78     82     79     88     
69     83     70     76     
68     83     69     50     
70     69     76     86     
62     83     71     50     
65     82     85     88     
67     46     86     77     
75     70     86     91     
75     86     76     40     
75     86     43     91     
43     86     77     91     
77     86     67     91     
70     67     86     91     
79     88     33     60     
60     79     88     78     
60     88     33     59     
78     88     60     80     
78     88     80     85     
60     80     88     59     
33     59     88     40     
80     88     59     66     
40     88     65     75     
66     88     75     85     
66     80     88     85     
85     88     75     65     
66     80     85     90     
78     88     85     82     
80     78     85     90     
70     89     81     84     
75     89     70     91     
84     70     89     87     
84     81     70     83     
70     89     87     91     
70     91     87     67     
75     89     91     66     

