Title = " tecplot file for 2D Cavity problem " 
variables = "x", "y", "z", "velX", "cellCentroidY" 
Zone T = "nmesh0" N = 88 E = 233 DATAPACKING = BLOCK, VARLOCATION = ([4-5]=CELLCENTERED), ZONETYPE=FETETRAHEDRON
-0.41745815834    -0.5    -0.5    -0.4300082147    -0.33969382413    
-0.33821104813    -0.3    -0.4    -0.5    -0.41741512105    
-0.5    -0.5    -0.5    -0.41487956845    -0.5    
-0.5    -0.5    -0.5    -0.5    -0.41860062223    
-0.5    -0.5    -0.41816796048    -0.5    -0.43346245512    
-0.5    -0.43075397645    -0.5    -0.39634945989    -0.33276963805    
-0.27676409483    -0.38899332285    -0.41560975998    -0.5    -0.5    
-0.5    -0.4149222672    -0.5    -0.5    -0.40949591994    
-0.5    -0.5    -0.40546795726    -0.34200738938    -0.5    
-0.5    -0.41238322854    -0.5    -0.5    -0.40432208776    
-0.5    -0.41817352176    -0.33084397547    -0.41588535905    -0.5    
-0.5    -0.5    -0.40045493841    -0.40561062098    -0.30998492241    
-0.33065524837    -0.30518463254    -0.43993908167    -0.41476941821    -0.41469320655    
-0.41808357835    -0.3277609913    -0.42391347885    -0.40359905362    -0.40607604384    
-0.4106734097    -0.42181283236    -0.29728317261    -0.39718410373    -0.36220404506    
-0.38879555464    -0.33150443435    -0.34231925011    -0.31429108977    -0.32110860944    
-0.37150645256    -0.31548586488    -0.33818015456    -0.32209268212    -0.3121239543    
-0.3343488276    -0.33946800232    -0.32929396629    
0.33981467104    0.42960044238    0.4    0.42810857285    0.5    
0.39881754329    0.5    0.5    0.1    0.13700693754    
0.13330796726    0.2    -0.13555449361    -0.13365527251    -0.1    
0.33703198141    0.3    0.5    0.41658102077    0.5    
0.5    -0.035376344277    -0.033163526401    0.0    0.051409269487    
0.049220714793    0.5    0.5    0.41950106621    0.5    
0.41851401329    0.41870498657    0.5    0.41335376528    0.32824588323    
0.14408802079    0.03543991968    0.052400162046    0.25768143998    0.21832711995    
0.23277564141    0.16452430883    0.076917529106    0.052862812157    0.048223919968    
0.15265091045    0.17829310894    0.23814042066    0.2245709468    0.27016609907    
-0.068741583773    -0.079890802503    -0.064639869175    0.10323016346    0.1046394213    
-0.0080818677598    0.32446482401    0.29985645413    0.048260491341    0.33604261279    
0.28281047204    -0.0049290945753    0.28847798705    0.23840468602    0.36509612203    
0.15882793069    0.17298997537    0.34245127439    0.19848746061    -0.0080562373623    
0.13119843602    0.0021690702997    0.12450686097    0.28288769722    -0.05915017426    
-0.0022261636332    0.057966101915    0.34059783816    0.19246333838    0.330745399    
0.12770193815    0.18876847625    -0.066976070404    0.22808775306    0.25749474764    
0.08257817477    0.28060570359    0.016877345741    
0.5    0.42842079665    0.5    0.5    0.4035384777    
0.5    0.5    0.5    0.5    0.5    
0.4156556509    0.5    0.4129810924    0.5    0.5    
0.39991355588    0.5    0.3    0.34051168889    0.34442981311    
0.4    0.41575513319    0.5    0.5    0.5    
0.43150487733    0.43011353568    0.5    0.39269393682    0.29396832588    
0.29022592306    0.29500412941    0.24661425142    0.23931408161    0.28491718881    
0.06041772808    0.071239039302    0.13123981904    0.32971925363    0.35577994585    
0.41248016854    0.32514038977    0.39476585388    0.5    0.33713707823    
0.15496109524    0.109153606    0.11208199456    0.23030118148    0.28164586425    
0.32543430837    0.38472351432    0.5    0.1741451472    0.23623451745    
0.23183135338    0.17537589605    0.11385296285    0.26840096712    0.40507993102    
0.5    0.40362745523    0.43584918976    0.5    0.21264617145    
0.41701319814    0.5    0.34166565537    0.20888838172    0.17286729813    
0.31602996588    0.34530383348    0.39659529924    0.19749359787    0.26714044809    
0.42494803667    0.33254820108    0.26864483953    0.14994361997    0.16062226892    
0.24148575962    0.31186491251    0.35113686323    0.41171085835    0.21205984056    
0.17410893738    0.34185385704    0.24630178511    
380.08673007    373.934347476    368.52540187    331.862240509    212.102786623    
200.04372826    398.42731991    398.939369274    396.853969984    391.969935407    
385.516032942    349.974015261    201.980964427    206.145972176    211.051233553    
398.946999233    399.540910757    398.558090874    398.197020802    399.577145643    
398.895339032    396.870021593    396.146787057    228.702497861    222.584582273    
269.682605535    262.105267389    220.463718098    227.31601883    61.6774868392    
59.1021091111    104.008863452    109.327437717    332.335206175    283.321190546    
313.954764163    347.380778262    343.26915839    114.620133723    121.012730826    
332.355389293    283.028134375    207.913882542    225.12608348    124.609719957    
172.547184311    196.102049343    53.4682092538    102.504686542    278.185593553    
277.279368362    325.18151997    301.817749764    318.905613063    379.691399064    
387.936944839    388.124448056    377.212896267    396.571005787    396.308416904    
395.733635559    395.833227631    391.719554136    393.950424267    393.061052281    
394.986260882    381.361756775    385.279714679    375.208549931    367.213611873    
380.338658004    361.257435189    384.69963396    377.967386242    360.84854847    
373.218612824    399.073661153    398.28902271    397.285708617    399.107361798    
399.3708308    397.87050742    399.000090121    396.794255083    391.071461798    
394.045717334    382.450243863    394.139601269    384.188596213    373.004795295    
382.970647684    388.090038325    389.502592227    393.970361485    389.474496873    
392.702641031    379.359362567    385.270349783    359.01822244    364.761690997    
329.307049019    219.661738146    256.331547447    371.71179393    390.197635819    
396.218402239    383.09963824    364.795150895    340.224596289    316.730649488    
376.801271017    387.913623304    395.468952754    358.40881488    397.741118823    
397.562691672    391.893382433    392.048873963    352.827199804    361.223774447    
305.015017228    388.654188469    389.955157506    394.049045187    396.457873849    
389.79981755    383.282791532    388.326094177    393.704640469    396.247879561    
386.472524418    372.741953341    258.94353978    325.695335159    339.5322493    
345.884566264    380.953598273    370.036724183    323.397886569    276.864027153    
336.926411991    301.515268287    388.867321005    382.083072357    390.225933702    
372.613234655    364.4568717    385.324899434    375.709169272    349.566104714    
373.64828222    359.696369899    386.185117438    375.237043576    372.673042196    
393.695102867    394.959257282    388.234619159    380.303556734    377.049186379    
389.600216312    380.244771381    357.140470648    354.94398153    374.171240282    
392.952700052    396.971434045    398.44192083    389.148198698    397.892739733    
396.033113624    392.813966237    382.782232285    380.770553002    396.771247991    
395.027704467    377.148737865    383.112950013    389.066807378    391.958747507    
393.653638438    381.79393242    359.315963376    350.691904689    321.886043671    
334.136934875    324.903507969    379.258187179    273.245853446    328.902642986    
376.270779186    300.780465617    389.44212431    380.421827131    383.184435968    
390.991529222    398.373628696    395.885706586    398.540910289    398.342470222    
388.619255062    398.92931558    385.238423993    300.522265597    266.577928048    
282.970055537    305.477547375    293.386376386    322.826611074    276.492936286    
368.790641802    372.039708829    369.365937662    334.17397983    365.911940164    
342.390587732    388.271154024    383.740312531    381.052960173    383.177619289    
347.917766032    361.481197275    372.410818488    380.19674639    389.831266891    
353.609605916    344.547090085    292.420267133    301.342222426    319.401368261    
367.276421156    373.556353514    379.093076483    
0.373928411151    0.398458963834    0.441090132846    0.403640019936    0.453987609472    
0.473682442186    0.106290715813    0.14351062674    0.157889151955    0.34481222602    
0.317133940766    0.380603260936    0.457437685006    0.478767073993    0.458139855367    
-0.062473092911    -0.0431390218772    -0.0176448007162    0.0239135925098    0.0501243433188    
0.0834681486555    0.0782227342316    0.0999520172245    0.459864793405    0.4818810142    
0.464356641081    0.443688331757    0.482305993988    0.460347779534    0.479593336129    
0.479593718532    0.459610244649    0.457691319804    0.396694832548    0.435934182006    
0.373244951886    0.350133712733    0.400257135975    0.478948644776    0.478755813855    
0.379815351706    0.44091423182    0.438266936539    0.413072143478    0.43916879675    
0.417582762525    0.396748887925    0.479582954462    0.479070770055    0.399966649264    
0.436935749639    0.394431025935    0.381303556888    0.377673981331    0.249421210596    
0.217458098806    0.193375596124    0.227335226835    0.0438266085919    0.0771995542847    
0.0453415361371    0.0799819986889    0.0983687408006    0.125083816781    0.0976898589338    
0.0444142676365    0.144272907311    0.178557972455    0.192400135338    0.276560008925    
0.269534063031    0.299254798206    0.229054808083    0.213840354519    0.272706073437    
0.195872028449    -0.086046983498    -0.0785372772577    -0.0465935473679    -0.111836189595    
-0.0874119294049    -0.0380711285942    -0.0803672819097    -0.0451092486076    0.112141958423    
0.102420401682    0.140652105186    0.0621358926004    0.0852137188297    0.158582500414    
0.0457056826995    0.0611623978381    0.034867186883    0.0481230400712    0.0831890132826    
0.0222546360902    0.0955272272712    0.0340945124069    0.311880190512    0.339349476191    
0.3473607347    0.377835693816    0.37794410929    0.305309678928    0.279599102249    
0.289587243645    0.224558051681    0.27718870248    0.347906800016    0.345526584847    
0.259329007598    0.287663450258    0.291441537361    0.28430019649    0.254926924414    
0.25629349497    0.219706279845    0.218538871154    0.324605582336    0.357337281927    
0.363449102383    0.123502930842    0.124758613687    0.173561179615    0.181685746678    
0.146920378081    0.167852574594    0.14800345471    0.178093705758    0.184172884739    
0.199633775236    0.224887217196    0.358468533373    0.311962459135    0.278474765456    
0.282952568882    0.316558565764    0.356167676264    0.327070917778    0.36610238935    
0.31260781378    0.330183750151    0.172131191804    0.150495323616    0.170031349576    
0.192062365171    0.243696779628    0.203986658478    0.133616454816    0.167927987553    
0.236547565039    0.225465766687    -0.00742142308675    0.0551041189681    0.0520050993535    
0.11094313429    0.117641727131    0.0588643408889    0.102889646187    0.140141114259    
0.0656631412853    0.123591221453    0.201550061228    0.19666801304    0.156567788838    
-0.0336307216879    -0.00710124787057    -0.0135694135413    -0.00606189905508    0.0154581661994    
-0.028709332718    -0.0522002339129    0.0670732976052    0.0604290910492    0.0037850719079    
0.0315675175848    0.0986212123739    0.0636319775055    0.0623994337742    0.0322851801005    
0.120480819542    0.17032084847    0.285876428373    0.248129690008    0.236657987917    
0.213163309893    0.318618039912    0.266814623986    0.32080010258    0.251501060479    
0.289749922388    0.315150219245    -0.050149166097    -0.00112682869032    0.000759493290704    
-0.0365689647315    -0.0110446870343    -0.0050110774091    0.0175342966179    0.00258972440578    
0.0185952912344    0.00437858064356    0.0320439642287    0.288076418301    0.330046463798    
0.326635867723    0.309226632504    0.273886512355    0.231956991424    0.303789747242    
0.0637393781638    0.0907645918636    0.0892414592838    0.22815537035    0.164749781933    
0.238429504071    -0.0185069088175    -0.00240406468251    0.00109969360223    -0.024875160844    
0.228032420314    0.189346579641    0.181226295981    0.227361564685    0.230065562397    
0.254707573941    0.283633286509    0.265751962175    0.286373963524    0.248558255486    
0.0688598658154    0.0351174832203    0.0309367273304    
1     2     3     16     
3     2     1     4     
4     3     2     28     
4     2     1     29     
5     8     6     29     
6     8     5     7     
9     10     11     25     
11     10     9     12     
12     11     10     66     
16     3     1     17     
1     16     17     63     
1     2     16     29     
18     19     20     32     
20     19     18     21     
21     20     19     29     
22     15     23     52     
23     15     22     24     
22     23     24     76     
24     25     26     76     
26     25     24     9     
9     26     25     11     
26     25     11     43     
11     25     10     43     
27     4     8     29     
8     4     27     28     
27     28     4     2     
27     2     4     29     
27     28     2     21     
21     2     27     29     
5     29     20     27     
20     29     5     30     
30     20     29     32     
30     29     5     31     
4     29     1     6     
6     4     29     8     
6     29     1     60     
1     29     16     63     
2     16     29     19     
27     5     29     8     
27     29     20     21     
16     29     19     68     
2     19     29     21     
19     29     20     32     
5     29     6     60     
29     31     30     32     
5     31     29     60     
31     32     29     60     
20     32     30     33     
33     20     32     18     
19     29     32     68     
18     19     32     34     
19     32     34     35     
35     32     34     65     
19     32     35     68     
39     40     41     63     
41     40     39     42     
42     41     40     66     
42     40     39     50     
26     25     43     76     
26     43     11     45     
44     43     25     76     
25     43     44     10     
10     43     44     73     
11     43     10     66     
45     43     11     71     
26     43     45     72     
46     47     36     54     
36     47     46     48     
48     47     46     69     
49     50     35     74     
35     50     49     39     
39     35     50     68     
39     50     49     42     
42     50     49     69     
39     50     40     68     
42     40     50     71     
23     14     52     15     
52     14     23     53     
23     52     53     76     
15     14     52     13     
22     15     52     13     
22     52     23     76     
13     52     22     51     
51     52     22     72     
38     54     46     36     
46     54     38     55     
55     46     54     69     
55     54     38     56     
38     54     36     37     
46     47     54     69     
38     54     37     70     
56     55     54     59     
56     54     38     70     
55     59     56     45     
45     55     59     71     
45     59     56     72     
54     59     55     81     
56     59     54     70     
1     61     60     63     
60     61     1     6     
1     60     29     63     
32     60     31     78     
29     60     32     68     
39     63     16     68     
16     63     39     41     
41     16     63     17     
41     63     40     66     
39     40     63     68     
16     63     29     68     
29     63     60     68     
61     63     64     84     
64     63     61     1     
1     64     63     17     
61     60     63     84     
17     63     41     12     
64     63     17     12     
64     63     12     66     
12     63     41     66     
35     65     57     74     
57     65     35     34     
35     32     65     68     
10     66     43     73     
11     43     66     71     
41     66     42     11     
11     41     66     12     
11     66     42     71     
42     66     40     71     
67     66     10     73     
10     66     67     64     
64     10     66     12     
64     66     67     84     
40     66     63     84     
32     68     60     78     
60     68     63     87     
40     68     50     87     
63     68     40     87     
39     68     16     35     
35     68     16     19     
50     68     35     65     
65     68     32     78     
50     65     35     74     
50     68     65     78     
42     69     49     55     
55     42     69     71     
55     69     49     46     
50     69     42     71     
49     69     50     74     
49     46     69     48     
55     69     54     81     
54     69     47     79     
49     48     69     74     
47     69     48     74     
59     70     56     75     
54     70     59     86     
37     70     54     86     
42     71     55     45     
45     42     71     11     
45     71     59     72     
55     59     71     81     
55     71     69     81     
45     43     71     72     
43     66     71     73     
40     50     71     82     
69     71     50     82     
40     71     66     73     
51     72     56     75     
56     72     51     45     
45     72     51     22     
56     72     59     75     
45     72     22     26     
22     72     52     76     
51     52     72     75     
43     71     72     77     
59     72     71     77     
22     26     72     76     
43     72     26     76     
43     73     71     77     
62     73     43     77     
43     73     62     44     
44     62     43     76     
44     10     73     67     
67     66     73     84     
58     74     48     57     
48     74     58     47     
47     74     58     79     
69     74     47     79     
57     58     74     65     
57     74     48     49     
58     74     65     80     
50     74     69     85     
35     74     57     49     
50     65     74     78     
52     72     75     83     
70     75     59     88     
59     75     72     88     
52     76     72     83     
23     76     53     44     
44     76     53     62     
23     76     44     25     
22     26     76     24     
72     76     43     62     
25     23     76     24     
43     62     77     72     
50     78     74     85     
65     74     78     80     
60     78     68     87     
68     78     50     87     
58     79     74     80     
74     79     69     85     
74     78     80     85     
59     77     81     88     
81     77     59     71     
54     59     81     86     
50     69     82     85     
40     82     71     73     
50     82     40     87     
72     62     83     76     
83     62     72     77     
72     83     77     88     
75     83     72     88     
82     84     40     87     
40     84     82     73     
73     40     84     66     
66     84     64     63     
67     64     84     61     
40     84     63     87     
60     63     84     87     
74     85     80     79     
50     78     85     87     
50     85     82     87     
59     81     86     88     
59     86     70     88     
59     77     88     72     

