Title = " tecplot file for 2D Cavity problem " 
variables = "x", "y", "z", "velX", "cellCentroidY" 
Zone T = "nmesh0" N = 95 E = 231 DATAPACKING = BLOCK, VARLOCATION = ([4-5]=CELLCENTERED),  ZONETYPE=FETETRAHEDRON 
0.23838104958    0.23887904452    0.3    0.2    0.13732468972    
0.13702752594    0.1    0.051427559857    0.0    0.051554777552    
-0.033156112103    -0.033137891856    -0.1    0.053433206699    0.023724900559    
0.052885035648    -0.064541433245    0.28258649104    0.27771398425    0.17285842098    
-0.077098563313    -0.13361635566    0.28691256046    0.18275566399    0.17420459679    
0.10731705885    0.052421696484    0.056835947699    0.10646627098    0.11013898558    
0.15242388821    0.17253126204    0.23332722535    0.13184266684    0.0042388816364    
0.010070850813    0.11259226501    -0.0044047106057    -0.0017305336023    0.071843892336    
0.073618157014    0.33723041415    0.34714686871    0.16530394554    0.10116890073    
0.10078687221    0.22574973106    0.28398631369    0.2280630121    0.091971047223    
0.012834740803    -0.01630297862    0.086958691478    0.15989041328    0.24450056255    
0.34692415595    0.33264538646    0.27569195628    0.22912324965    0.12609431148    
0.10304665565    0.23749235272    0.13241352141    0.24845309556    0.1760070771    
0.20027701557    0.10974547267    0.28541332483    0.17132388055    0.015866626054    
-0.018017932773    -0.083216667175    0.19366455078    0.26247379184    0.15041914582    
0.05218212679    0.034384440631    0.10883488506    0.16764962673    0.032193314284    
0.17235597968    0.13648201525    0.011335023679    0.057037685066    0.077900789678    
0.083878189325    0.15591920912    0.23649072647    0.23062975705    0.02828043513    
-0.0086802467704    0.1131433621    0.2118780762    0.17542864382    0.089362457395    

-0.5    -0.41472343476    -0.5    -0.5    -0.4168881557    
-0.5    -0.5    -0.5    -0.5    -0.43266810545    
-0.41681834914    -0.5    -0.5    -0.34019988404    -0.42616629601    
-0.5    -0.5    -0.5    -0.41328206658    -0.5    
-0.41791293025    -0.5    -0.41540122032    -0.41157954931    -0.32740004453    
-0.5    -0.40809574723    -0.1449067291    -0.18103766441    -0.24149730754    
-0.15670896114    -0.10838096589    -0.11397877408    -0.054455167323    -0.10996957123    
-0.046196698417    -0.30303242803    -0.30195197463    -0.23831660019    -0.018677968532    
0.044617960863    -0.31047663093    -0.42989856005    -0.40022647381    -0.42190292478    
-0.4243209064    -0.30981233716    -0.33099918884    -0.22973869136    -0.38227200508    
-0.20665049553    -0.3678817749    -0.10168319196    -0.021623669192    -0.33944323659    
-0.36383622885    -0.25078937411    -0.27347847819    -0.34696641564    -0.2963745296    
-0.31550174952    -0.054580211639    -0.011960457079    -0.050696302205    -0.11558044702    
-0.20518957078    -0.18870469928    -0.30925294757    -0.28654807806    -0.09070212394    
-0.023071698844    -0.089378364384    0.055856585503    -0.12153756618    -0.18636290729    
-0.23331569135    -0.32935139537    -0.31939277053    -0.334821105    -0.18784360588    
-0.0091421063989    -0.060292810202    -0.17641739547    -0.029815310612    0.0080390023068    
-0.088426396251    -0.22678218782    -0.1328112036    -0.23815740645    -0.15670755506    
-0.092203900218    -0.15543183684    -0.1397421658    -0.2401958853    -0.12685717642    

-0.41525380821    -0.5    -0.5    -0.5    -0.5    
-0.4181531734    -0.5    -0.43420964528    -0.5    -0.5    
-0.5    -0.41907704057    -0.5    -0.5    -0.39902687073    
-0.34379394928    -0.33277845756    -0.33128374651    -0.27435973287    -0.3290328843    
-0.38918018341    -0.4156850925    -0.38807472587    -0.38747996092    -0.5    
-0.2452711774    -0.27844178677    -0.5    -0.40992242098    -0.5    
-0.5    -0.40393692255    -0.5    -0.5    -0.4079644084    
-0.5    -0.40083828568    -0.40279877186    -0.5    -0.40617185831    
-0.5    -0.40549471974    -0.32568281889    -0.27613860369    -0.18543876708    
-0.3525814414    -0.40268585086    -0.5    -0.5    -0.43302878737    
-0.40940052271    -0.33317422867    -0.34930312634    -0.42166528106    -0.22211249173    
-0.24706466496    -0.34454509616    -0.28504756093    -0.31761115789    -0.16345860064    
-0.29515373707    -0.41262426972    -0.32144552469    -0.2742189765    -0.30286681652    
-0.34361302853    -0.31344205141    -0.35071828961    -0.33957964182    -0.27138850093    
-0.39372223616    -0.35103026032    -0.27735134959    -0.32863172889    -0.20166486502    
-0.24961166084    -0.15757079422    -0.082985728979    -0.29257264733    -0.13513913751    
-0.19294695556    -0.25116205215    -0.31702208519    -0.30239072442    -0.16998247802    
-0.19005827606    -0.10202209651    -0.23739098012    -0.20834755898    -0.21620352566    
-0.14223906398    -0.12888933718    -0.1453962326    -0.42512151599    -0.2627030313    

399.672571382    399.868610088    399.591242394    399.554613969    399.847614492    
399.594523644    399.622852172    399.882045547    399.569822591    399.575850448    
399.845597995    399.571818347    398.625916402    399.306929532    399.631127786    
399.133441976    398.992344167    399.64363963    399.741808303    399.459332547    
399.3075468    399.023451317    399.174314426    399.631849016    399.718264336    
398.296185025    399.295644005    399.422053196    399.610531304    399.727778601    
398.980570449    399.177796332    398.643886341    398.454987164    397.919328685    
397.507814201    398.652560629    398.602161501    398.885347381    399.281014092    
399.619708424    398.714597128    399.215838569    395.756417814    397.242303032    
396.697896366    394.820193003    395.2384728    397.198447812    396.337979278    
392.533859014    391.235639904    394.999041515    397.505757211    398.695070817    
398.598337139    397.738261425    397.15467356    397.947341204    398.479244828    
395.735434986    397.457101286    391.556802905    395.548336183    395.316000234    
388.717772453    392.330501262    397.489364236    396.855770477    397.82483684    
397.38447183    398.2973078    399.289904151    395.368666431    398.433880417    
399.594012664    396.234367546    399.506061872    398.74546023    399.118189464    
398.762510841    397.206538768    397.530253099    396.084366217    398.040000284    
399.234110111    399.061662031    398.25529246    397.261376529    397.05682933    
396.079025571    395.817058235    399.515245337    399.712610501    396.97215113    
396.142596522    399.528347825    396.872993553    399.750278646    391.940484768    
394.87751824    395.425631785    392.432341085    391.14575511    395.173101256    
394.029631119    388.648392636    389.995635621    390.303082442    382.455484166    
390.295385575    391.687087135    397.174974968    395.941796585    396.998141625    
392.863342996    394.459738698    395.115882525    395.279402828    396.026077906    
394.079284938    390.424901678    391.210366892    395.110839029    392.549791671    
394.318131008    392.706619222    391.785422134    391.613651578    395.21232615    
382.26264316    380.55310457    375.288890788    380.261776619    384.656207143    
381.751233183    377.488317199    384.585518834    381.107077428    371.99626445    
384.013041743    386.863327607    390.546836114    389.119700007    391.147699079    
380.832810882    392.450711894    389.703656472    391.148193024    395.27577344    
392.708025791    392.594787156    397.67479553    397.907479153    394.784846034    
393.445177216    394.875091706    395.555201135    395.547505841    389.875323678    
393.695232405    392.753282845    393.681131005    387.894014532    393.14338642    
392.10290247    376.093050142    377.609163215    380.51274746    379.666282866    
380.737022042    387.354627616    382.936527445    387.722150883    391.253951854    
388.508778353    386.355434178    386.76962039    382.485582018    388.327340388    
388.305354711    381.849822817    387.664592334    391.319678982    391.903825108    
388.37562828    388.562145836    391.217591653    390.611140408    378.846776808    
381.148301173    360.741751417    363.856613958    367.784396878    373.025511603    
376.1785622    371.278123595    387.117731074    386.282387899    380.845799938    
379.058327832    382.694841673    371.865232848    366.471494966    356.620328274    
375.800425868    384.89930405    367.66825181    372.668706821    376.467824329    
390.067930529    380.678783653    375.032104597    378.986862918    367.551088844    
365.750969122    370.292119059    372.534537068    370.709430796    373.726799114    
369.314159565    377.936335787    369.998908915    372.349657611    382.331946533    
399.090641956    398.88509788    380.320707139    377.469441896    366.968640656    
373.814244302    
-0.456692570527    -0.478280771013    -0.454871756821    -0.449892265459    -0.478856696614    
-0.456197632435    -0.463596692026    -0.483183130465    -0.45283684324    -0.457955043785    
-0.478788772698    -0.459298847111    -0.370979238646    -0.403017407098    -0.443721830967    
-0.395817931786    -0.462674434822    -0.481581519988    -0.480833219176    -0.481659763919    
-0.435339668659    -0.460444050489    -0.439574062483    -0.479398040741    -0.478869296586    
-0.388745572537    -0.435007138033    -0.47718636345    -0.477562571415    -0.476978517253    
-0.459324437819    -0.45623966786    -0.454580830084    -0.434855294609    -0.431420769567    
-0.397613276431    -0.439934699421    -0.387297072302    -0.383880311606    -0.392670768238    
-0.43545649559    -0.366610536456    -0.428705371796    -0.193936584406    -0.181257823482    
-0.204621475006    -0.147279777052    -0.0825168086777    -0.107374629855    -0.115064032288    
-0.0826857168936    -0.13267651612    -0.171210023805    -0.29625304107    -0.303511819041    
-0.337025949486    -0.278914949157    -0.378140085685    -0.360909010084    -0.2806170974    
-0.262795247935    -0.330375155458    -0.0797501234158    -0.0661708768997    -0.0190594111271    
-0.0938780114718    -0.011403195803    -0.389540927949    -0.394448313836    -0.434407926329    
-0.434232648338    -0.456257874964    -0.481491617894    -0.386197407189    -0.459144866898    
-0.481592749243    -0.393339718641    -0.480528832643    -0.430309335677    -0.451158177833    
-0.433905918073    -0.296386902307    -0.338760042737    -0.330269679769    -0.356055976201    
-0.345435561362    -0.299058220767    -0.27791861048    -0.371446483105    -0.3795795875    
-0.368549142621    -0.366259000152    -0.365459738069    -0.392727236716    -0.367543838538    
-0.339736654918    -0.46742832259    -0.398996437215    -0.432872244481    -0.22249908478    
-0.234675766898    -0.241635791304    -0.281445495248    -0.157206531011    -0.353425226733    
-0.322341618642    -0.144772447651    -0.0946071723032    -0.141581267842    -0.0409123446765    
-0.0521141829047    -0.0607557439525    -0.373479825031    -0.34033382506    -0.34775900007    
-0.322647673496    -0.331674725241    -0.325341392747    -0.375397633865    -0.375616884194    
-0.355647222486    -0.253311254361    -0.25161869051    -0.3467035065    -0.357235991168    
-0.386203830792    -0.366595336315    -0.335256065706    -0.341655520407    -0.371198215682    
-0.0489377765771    -0.0705117235205    -0.0727983371412    -0.0835106307278    -0.128884919012    
-0.059775726312    -0.0570829019668    -0.0999967500295    -0.0840555363305    -0.0588643955077    
-0.174213903695    -0.154326660377    -0.183696328215    -0.169443559274    -0.179191160159    
-0.1328450445    -0.229133258243    -0.225523688631    -0.27113265682    -0.301753591599    
-0.257083432805    -0.268079154511    -0.339006956409    -0.367273676785    -0.31274548047    
-0.302817252083    -0.284985505369    -0.338091781159    -0.347219906463    -0.250585599775    
-0.276272953013    -0.308342095038    -0.260116981196    -0.242486103866    -0.309826416541    
-0.252061757602    -0.0642196998986    -0.0787766764327    -0.115937593163    -0.105032481272    
-0.154937029596    -0.216522435273    -0.162122445308    -0.228946732614    -0.230171910847    
-0.274338855363    -0.231394364816    -0.258392785615    -0.226089392573    -0.29379209809    
-0.279271221384    -0.184760043748    -0.229561435757    -0.344208994074    -0.340466209974    
-0.266684235663    -0.258648941749    -0.296421292906    -0.28180264404    -0.19174964745    
-0.223353845649    -0.0154845372447    -0.0165044858243    -0.0637229462256    -0.0889815897896    
-0.101040652453    -0.0523002317086    -0.168193090322    -0.14846211603    -0.119478095548    
-0.124535697949    -0.181462140515    -0.0789936913377    -0.0752938012421    -0.0408371028949    
-0.124832660785    -0.190791587038    -0.0861174590759    -0.128019527521    -0.124113450841    
-0.301672186417    -0.174534013994    -0.171650370989    -0.176951801087    -0.123910554277    
-0.105962237744    -0.115210934769    -0.147406217629    -0.14131399961    -0.140911376792    
-0.146209182906    -0.190933738245    -0.118829612086    -0.11708247485    -0.148440070635    
-0.260376482385    -0.216845023616    -0.173557462336    -0.138572011592    -0.0829651747283    
-0.0874140981666    
1     2     3     23     
3     2     1     4     
1     4     2     24     
5     6     7     50     
7     6     5     4     
5     4     6     24     
8     9     10     15     
10     9     8     7     
7     8     10     50     
11     12     13     21     
13     12     11     9     
11     9     12     15     
14     15     11     38     
11     15     14     10     
10     11     15     9     
10     15     14     50     
16     15     8     46     
8     15     16     12     
12     8     15     9     
12     15     16     17     
8     15     10     50     
17     12     15     21     
11     15     12     21     
12     21     17     22     
22     12     21     13     
15     21     11     38     
1     2     23     24     
20     24     1     18     
1     24     20     6     
6     1     24     4     
6     24     20     46     
18     24     1     23     
20     24     18     19     
18     24     23     19     
20     24     19     44     
19     24     23     59     
18     19     23     43     
23     24     2     47     
25     24     5     50     
5     24     25     2     
2     5     24     4     
2     24     25     47     
5     24     6     50     
28     29     30     51     
30     29     28     31     
31     30     29     94     
31     29     28     32     
34     33     32     62     
32     33     34     31     
34     32     31     28     
34     32     28     40     
28     32     29     53     
31     29     32     94     
30     37     14     38     
14     37     30     25     
25     14     37     50     
25     37     30     94     
21     38     15     52     
15     38     14     50     
38     14     30     39     
37     38     30     51     
14     38     37     50     
36     40     28     35     
28     40     36     34     
34     40     36     41     
35     40     28     53     
34     40     41     54     
23     43     19     68     
19     44     24     59     
20     24     44     46     
26     46     44     27     
44     46     26     20     
20     46     26     16     
27     46     44     61     
26     46     27     16     
16     20     46     6     
24     44     46     79     
16     6     46     8     
6     24     46     50     
8     6     46     50     
8     46     15     50     
25     47     37     94     
37     47     25     24     
24     37     47     69     
24     25     37     50     
25     47     48     2     
48     47     25     49     
49     47     25     94     
24     47     23     59     
46     50     24     37     
37     46     50     52     
37     24     46     79     
5     25     50     14     
5     14     50     10     
38     50     15     52     
37     50     38     52     
8     6     50     7     
15     50     46     52     
7     50     10     5     
37     51     29     67     
29     51     37     30     
30     37     29     94     
38     51     37     61     
28     29     51     53     
46     52     37     61     
37     52     38     61     
29     53     32     67     
28     32     53     40     
35     53     28     51     
40     54     32     63     
32     54     40     34     
34     32     54     62     
19     59     23     68     
47     59     24     69     
23     59     47     68     
58     55     59     79     
59     55     58     56     
58     59     56     68     
44     59     19     55     
24     59     44     79     
44     59     55     79     
51     61     38     83     
37     61     51     67     
37     46     61     79     
45     61     44     60     
44     61     45     27     
27     61     45     77     
60     61     44     79     
45     61     60     77     
44     61     46     79     
54     62     32     63     
32     63     62     65     
63     65     53     82     
53     65     63     32     
32     53     65     67     
32     63     53     40     
62     65     63     64     
32     65     62     74     
64     62     65     74     
64     65     63     82     
66     67     65     75     
65     67     66     32     
32     67     66     94     
29     53     67     51     
29     67     32     94     
65     67     53     95     
29     37     67     94     
51     67     61     83     
37     61     67     69     
58     57     68     56     
68     57     58     66     
58     68     66     69     
23     68     47     42     
42     23     68     43     
47     68     59     69     
59     68     58     69     
37     47     69     94     
37     69     24     79     
24     69     59     79     
66     58     69     89     
66     69     68     47     
58     59     69     79     
47     66     69     94     
67     69     61     75     
37     61     69     79     
37     69     67     94     
35     70     71     84     
71     70     35     72     
35     72     70     83     
64     74     65     88     
65     75     67     95     
66     67     75     69     
66     75     65     88     
69     75     66     89     
67     69     66     94     
61     75     69     79     
67     75     61     76     
76     75     61     60     
60     76     75     80     
60     61     76     77     
60     75     61     79     
76     67     75     95     
76     61     67     83     
45     77     60     78     
55     44     79     60     
75     79     60     89     
69     79     75     89     
55     79     58     89     
58     79     69     89     
75     80     76     90     
60     80     75     87     
64     82     73     81     
73     82     64     63     
64     82     81     88     
64     65     82     88     
53     82     65     95     
63     82     53     84     
51     83     53     67     
53     83     51     35     
35     53     83     70     
53     83     70     95     
76     83     67     95     
53     84     82     95     
86     82     84     95     
84     82     86     85     
65     88     75     82     
66     75     88     89     
81     88     82     93     
75     82     88     93     
75     65     82     95     
55     79     89     60     
75     88     89     93     
80     90     75     92     
76     75     90     95     
90     91     86     92     
86     91     90     70     
70     90     86     95     
75     92     90     86     
86     75     92     93     
86     90     75     95     
90     92     80     91     
75     80     92     87     
82     93     75     86     
86     75     82     95     
53     67     83     95     
30     94     49     25     
49     94     30     31     
76     95     90     83     
83     95     90     70     
70     95     86     84     
70     53     95     84     

