Title = " tecplot file for 2D Cavity problem " 
variables = "x", "y", "z", "velX", "cellCentroidY" 
Zone T = "nmesh0" N = 99 E = 233 DATAPACKING = BLOCK, VARLOCATION = ([4-5]=CELLCENTERED),  ZONETYPE=FETETRAHEDRON 
-0.15784823572    -0.18403604627    -0.1544154289    -0.23984447934    -0.11265317724    
-0.1661876142    -0.29730021954    -0.32768036898    -0.12862838805    -0.07705043303    
-0.0022199044737    -0.059786099941    -0.064485211352    -0.058995011316    -0.0013214884093    
-0.23570425808    -0.29411423206    -0.14558345079    0.022982079536    -0.082493901253    
0.050998203456    -0.15084071457    -0.25045061111    -0.28851944208    -0.2187473774    
-0.0916967839    -0.072593301535    -0.21176297963    -0.12605653703    -0.041165109724    
-0.12358992547    -0.04494119063    -0.0049792267382    -0.15926118195    -0.21956521273    
-0.18744929135    -0.1123976931    -0.17177045345    -0.083267346025    -0.19182032347    
-0.40482291579    -0.33510330319    -0.32574671507    -0.31909075379    -0.305768013    
-0.27116063237    -0.26442721486    -0.22049382329    -0.28730630875    -0.31333625317    
-0.33154094219    -0.22344839573    -0.12312694639    -0.15667569637    -0.26889336109    
-0.19837510586    -0.02923585847    -0.021785223857    0.034904532135    -0.089062400162    
0.099765390158    0.028138827533    0.021336633712    -0.047014314681    -0.04713287577    
0.029059011489    -0.23286023736    -0.17523249984    -0.23917742074    -0.097244560719    
-0.18032833934    -0.12954746187    9.8228352726e-05    -0.057597957551    -0.19859114289    
-0.13722740114    -0.074207119644    -0.023622816429    -0.20950435102    -0.031658235937    
0.0094026327133    0.067133828998    -0.10070315748    -0.099340446293    -0.11982141435    
-0.019795352593    0.049275837839    -0.019804503769    -0.038092400879    -0.094810500741    
-0.1170893684    0.025678804144    0.015170675702    -0.11430221051    -0.15042594075    
-0.014718302526    -0.088265553117    -0.16004104912    -0.25979873538    
0.5    0.41396617889    0.5    0.5    0.5    
0.41530150175    0.41785821319    0.5    0.40041485429    0.5    
0.5    0.40982949734    0.5    0.5    0.40343809128    
0.34484261274    0.40615525842    0.4127329886    0.42029249668    0.4029161036    
0.34383583069    0.28139716387    0.38990306854    0.31110551953    0.35463738441    
0.35465326905    0.3250862956    0.33910441399    0.3102992475    0.29751354456    
0.27983826399    0.23928229511    0.29079681635    0.30340898037    0.2656519115    
0.18746501207    0.3536054492    0.30080643296    0.27131479979    0.19964146614    
0.13689771295    0.06012513116    0.074347198009    0.19609227777    0.00053410825785    
-0.00046945840586    0.098517857492    0.26186665893    0.18371337652    0.13182672858    
0.23973622918    0.15670248866    0.18168850243    0.23291373253    0.27171844244    
0.1916718781    0.15427291393    0.2582000196    0.14440822601    0.22432801127    
0.062003210187    0.02280225046    0.12662006915    0.34640035033    0.052678707987    
-0.040290866047    0.17948055267    -0.0055818110704    -0.052277233452    0.20733335614    
0.097218066454    0.11397588253    0.064655043185    0.10398437828    -0.064455613494    
0.029672401026    0.078528016806    0.026505835354    0.089595146477    0.097736671567    
0.043773494661    0.10779263824    0.026198217645    -0.021241758019    0.089447163045    
0.20059047639    0.14738327265    0.20794272423    0.16411808133    0.13191781938    
0.14277984202    0.19892947376    0.11158268154    0.19043906033    0.19724671543    
0.12909922004    0.43892860413    0.33220386505    0.28757414222    
-0.16271000916    -0.12137038261    -0.069859825877    -0.13154131445    -0.23738611331    
-0.21305540204    -0.1380405724    -0.091015987118    -0.015183720738    -0.027797897199    
-0.23662913003    -0.26719513535    -0.3275702142    -0.13288478237    -0.17091374099    
-0.1800249517    -0.24099266529    -0.30420470238    -0.3056512773    -0.10735099763    
-0.23954698443    -0.087195985019    -0.069311730564    -0.062851265073    -0.27571365237    
-0.1924303174    -0.32601997256    0.0028856392018    -0.004823774565    -0.043345879763    
-0.24754862487    -0.35348820686    -0.15602079034    -0.17134040594    -0.23511910439    
-0.1750036031    -0.26659137011    0.079299814999    0.065062306821    0.017035059631    
-0.086583822966    -0.11567402631    0.01258007437    -0.045862741768    0.053837504238    
-0.03926416859    -0.044036142528    -0.0376653485    0.051262147725    -0.18233148754    
-0.13140705228    -0.24951249361    -0.24892762303    -0.33327850699    -0.17146483064    
0.11507255584    -0.25719451904    -0.25361275673    -0.33338880539    -0.15367992222    
0.08092341572    -0.050664272159    0.052222408354    -0.13585554063    0.020682629198    
0.059226922691    -0.08880661428    -0.0038632375654    0.03325330466    -0.031982798129    
0.015550041571    -0.072570905089    -0.2319624126    -0.34029144049    -0.097109861672    
-0.15935574472    -0.19121952355    -0.14529950917    -0.12649032474    -0.07657096535    
0.094147279859    -0.17102652788    -0.05257004872    0.052918769419    0.099740616977    
-0.090027466416    -0.047469347715    0.023828176782    0.12354470044    0.021488841623    
-0.15289129317    -0.18501263857    0.12526865304    0.085725553334    -0.097184307873    
-0.15494127572    -0.18388183415    -0.33811929822    0.016605032608    
49.4918266024    32.6328942865    50.1617120114    53.0873123562    66.9586019916    
75.909781026    115.311082639    75.2086095897    46.1067130069    34.3796891448    
59.0176435504    126.778136348    143.029418632    125.807018347    83.590758559    
68.5738242626    24.8656272554    27.912195439    41.5330954329    64.8351929753    
69.7154364514    127.923120458    71.4132476055    49.6994430878    143.150029417    
143.864228205    130.190347945    59.105227622    156.604800039    179.980725765    
158.498699124    165.754320895    143.14361811    155.816889519    107.956460246    
175.747805607    149.556371731    183.815595038    134.32748035    133.399813422    
104.826437644    157.256157892    160.818979379    151.650087984    104.050725714    
238.716909795    244.030246248    263.466832595    213.030318939    168.634972301    
192.946743453    131.191931142    188.58879937    201.196676961    207.325696145    
146.443051743    207.639592328    180.198331005    123.864083446    163.334884701    
189.941508532    189.170051788    214.116722777    216.79470402    232.137161743    
223.060931725    335.813610449    344.357985599    335.630792553    339.564823817    
215.637524818    185.377993334    194.316956487    188.516778231    223.89021305    
320.288325283    322.863095361    305.990457496    333.931459027    327.630740779    
316.389256698    330.457202604    341.593634196    272.11556088    289.063526796    
282.6015734    256.18466793    296.363539224    247.061915869    224.132566814    
249.698220317    262.430929879    284.143107435    293.530844681    312.451529418    
285.271087191    216.407076706    247.623981625    269.03355817    182.782864663    
215.642423987    220.481159649    207.935734808    253.406426853    269.939368017    
308.699129595    233.771040536    275.305048446    284.496264645    266.34742112    
190.308098275    189.718161566    191.242534186    163.08143379    214.569650539    
196.329463996    214.966146655    193.393703559    122.141281233    251.899663137    
256.642632134    250.815847477    304.345721442    316.839168756    354.889072742    
352.220555878    342.851796505    237.310871093    246.865538877    234.66695085    
226.669698002    238.589435788    302.357819518    288.650847923    284.233902696    
277.935209164    293.663354247    334.352826267    340.477862889    331.413470772    
342.66335853    303.186626309    288.066372089    311.287779127    338.336825203    
311.384152531    318.851800915    322.471169356    313.060821986    293.948566705    
304.98176806    314.877137974    317.559068037    327.316756413    328.244424386    
308.761776045    316.905416409    311.320750247    323.916538425    315.158167206    
311.548768702    314.339299313    300.641559375    308.274557014    320.268627    
305.07654748    312.122218997    318.157019002    324.139799836    322.387819561    
309.40122589    230.356838897    248.883400763    241.469720275    281.067787219    
273.035270289    266.550509271    279.224541335    264.404709355    215.035410364    
239.548121738    272.007991115    266.896887177    278.725939194    292.981050148    
299.498660229    311.743145942    289.196832388    292.866308621    306.743056615    
277.57839432    299.697216533    281.316700102    267.786333225    257.382269213    
273.533304757    305.758155499    261.136031716    267.808391418    279.709859784    
284.658369881    272.787905121    283.291343953    293.636127002    306.108185451    
267.212449912    276.251734227    240.784909124    264.159809822    281.809748978    
290.94565744    264.727758624    274.145194755    291.793858196    291.023067262    
260.843388129    245.533037072    293.77508551    307.859874921    312.418130228    
299.549104804    302.755374613    201.704809509    328.006135025    330.771556776    
104.547516707    68.2610723718    43.273641913    108.293958862    15.9170800445    
16.4739154226    73.8463610691    46.3574944041    
0.453762039771    0.477928125757    0.45239212766    0.456836514555    0.442205022107    
0.436953111729    0.398392091038    0.431554757174    0.462724278026    0.477310354137    
0.458520490931    0.391083357827    0.369601428225    0.39410522988    0.43356661793    
0.43880504313    0.474658702078    0.474623632708    0.46118188764    0.439020998201    
0.429754411513    0.372310133671    0.426423356499    0.449840191779    0.3772938893    
0.351699443132    0.36881053452    0.452700176253    0.354211007087    0.330121618121    
0.338107590245    0.354955226787    0.381019086308    0.347439762863    0.401399421987    
0.340713849926    0.349452429984    0.313084924971    0.371812750194    0.369448936465    
0.405250254123    0.356995438769    0.332521015431    0.351373810051    0.402275704748    
0.247303881089    0.257564668161    0.228640757584    0.302110146305    0.355527094969    
0.324081531455    0.384728422911    0.322510122389    0.310091238109    0.289277533941    
0.383691968852    0.329767023679    0.363020934285    0.398885885254    0.376109096818    
0.334488466766    0.355900727406    0.268477121317    0.268405519204    0.240469677028    
0.246119198507    0.0660905426912    0.0572257829337    0.10848567592    0.0610375533593    
0.264042588472    0.298351375964    0.301954844887    0.300192724216    0.245488974132    
0.11547898519    0.139337159007    0.163841529344    0.13282404397    0.123972164783    
0.150448689867    0.0954894735227    0.116443488891    0.23947439732    0.210024924915    
0.198971610385    0.219111075352    0.166724543183    0.248777203977    0.281671448124    
0.270637480342    0.238293251349    0.189979493105    0.199365255989    0.162292762456    
0.208736150527    0.302410764777    0.275204498539    0.238885492187    0.34084150143    
0.278823080061    0.321755662067    0.282247369965    0.235699460659    0.205673435157    
0.171329455749    0.247762945712    0.184714581911    0.175552587852    0.209110783915    
0.303534612869    0.289597489679    0.287167986649    0.32947252615    0.252740287707    
0.287444753701    0.254492921637    0.300487032087    0.378285714184    0.23218867864    
0.212260561776    0.230154959609    0.141772156552    0.125048802954    -0.0314000346336    
-0.0134102063834    0.0244909485331    0.236884467841    0.216756936171    0.228564845397    
0.233606528446    0.217380783126    0.120601068925    0.148187536541    0.136951936033    
0.172077845528    0.163729974174    0.0473176236841    0.0447870466504    0.0698718540505    
0.00684363745855    0.146658466423    0.161926877909    0.116363501833    0.0129782402673    
0.0873767776688    0.0585902279699    0.044762860601    0.082508388492    0.103439464857    
0.0759811483478    0.0612896059312    0.0494919289121    0.0222272306314    0.0189066492534    
0.0833009877027    0.0625517554739    0.0855236218552    0.0421905419849    0.0646540565475    
0.088317750725    0.0664748807103    0.0925570299319    0.0940501637755    0.0640100076172    
0.0780729517234    0.0931144493061    0.0803985052425    0.0397843759834    0.0545978689205    
0.0914954483284    0.228976270935    0.207424161271    0.228704758684    0.140204078886    
0.154760448103    0.178837346651    0.137650864263    0.176794933419    0.247063725288    
0.218742629957    0.159679765533    0.163735177978    0.144086663236    0.127146724395    
0.109940813676    0.07599604753    0.14320585552    0.119437893665    0.10191838906    
0.157255300753    0.112152114019    0.139689321625    0.173717214873    0.185227007843    
0.163071856599    0.0914165518106    0.183079031386    0.178988665275    0.155372164467    
0.162825597461    0.164898048318    0.143349580476    0.135293694615    0.141336732868    
0.188400187384    0.177636063238    0.242562852311    0.188960658229    0.168104506087    
0.166549104114    0.190808624834    0.173647520862    0.1438590739    0.15269580137    
0.209348692649    0.223545118649    0.147444785318    0.114339484976    0.118339189813    
0.149993703706    0.11201454266    0.300556804477    0.0539997673694    0.0257199391915    
0.399396490228    0.436196647671    0.461264723057    0.404329120438    0.485973054344    
0.485511714981    0.440683098552    0.463491505666    
1     2     3     20     
3     2     1     4     
4     3     2     23     
4     2     1     6     
1     6     2     97     
4     2     6     7     
2     6     7     16     
2     7     4     23     
11     12     5     97     
5     12     11     13     
13     12     11     19     
2     16     7     23     
6     16     2     34     
15     19     12     21     
12     19     15     11     
11     15     12     97     
14     20     3     10     
3     20     14     1     
1     20     14     97     
2     20     1     97     
3     20     2     9     
9     20     2     22     
3     9     2     23     
3     20     9     10     
12     15     21     26     
2     22     20     34     
9     22     2     23     
4     23     7     8     
16     23     2     22     
16     23     22     24     
2     16     22     34     
6     25     16     34     
16     25     6     17     
21     26     15     33     
12     15     26     97     
12     26     21     58     
15     33     26     64     
21     26     33     58     
6     34     2     26     
26     34     2     20     
6     26     2     97     
6     34     26     37     
20     34     22     64     
26     34     20     64     
2     26     20     97     
31     36     34     60     
34     36     31     35     
31     35     36     53     
31     34     35     25     
25     34     6     37     
25     31     34     37     
26     6     37     12     
26     37     34     31     
31     26     37     58     
31     34     26     60     
6     25     37     18     
31     37     25     98     
18     25     37     98     
18     37     6     12     
18     37     12     27     
27     37     12     58     
18     37     27     98     
29     38     40     48     
40     38     29     39     
39     40     38     94     
39     29     40     70     
47     46     43     71     
43     46     47     42     
42     47     43     44     
42     46     47     79     
22     48     29     70     
29     48     22     28     
28     29     48     38     
28     48     22     24     
29     48     40     70     
43     49     47     71     
47     49     43     44     
44     47     49     67     
42     50     44     41     
44     50     42     47     
47     44     50     67     
47     50     42     79     
42     41     44     43     
35     53     31     54     
54     35     53     52     
35     53     52     36     
31     53     36     60     
36     53     52     91     
22     55     48     67     
48     55     22     24     
24     48     55     51     
48     55     51     67     
57     58     59     92     
59     58     57     32     
32     57     59     74     
32     58     57     53     
31     27     58     37     
58     27     31     32     
31     58     32     53     
37     58     26     12     
31     26     58     60     
31     27     37     98     
26     33     58     60     
31     58     53     60     
57     53     58     60     
57     32     53     74     
34     60     36     22     
36     60     53     91     
57     53     60     91     
57     60     58     92     
26     60     34     64     
60     64     22     34     
22     64     60     30     
30     22     64     20     
30     60     22     70     
30     64     60     33     
33     60     30     86     
33     64     60     26     
20     26     64     15     
55     67     22     36     
36     67     22     95     
22     67     48     95     
47     49     67     71     
47     67     50     79     
46     69     68     75     
68     69     46     45     
45     46     68     71     
22     48     70     95     
40     70     48     95     
22     70     60     95     
30     60     70     86     
39     70     40     94     
67     71     72     79     
72     71     67     40     
40     72     71     90     
40     67     72     95     
40     71     67     49     
68     71     46     79     
45     46     71     43     
46     71     47     79     
68     46     75     79     
50     79     67     36     
36     79     67     95     
67     79     47     71     
68     79     75     83     
77     80     76     91     
76     80     77     78     
78     76     80     83     
78     80     77     96     
65     80     63     90     
63     80     65     62     
62     65     63     81     
62     80     65     83     
66     81     62     61     
62     81     66     65     
63     81     65     93     
62     81     63     61     
61     81     63     93     
78     80     62     83     
62     80     78     82     
78     82     80     96     
80     83     76     72     
72     80     83     90     
72     76     80     91     
72     83     76     79     
65     83     80     90     
72     79     76     91     
72     83     79     71     
65     71     84     83     
84     71     65     85     
65     85     71     90     
30     86     70     88     
60     70     86     95     
33     60     86     92     
80     86     72     91     
72     86     80     70     
70     72     86     95     
70     80     72     90     
70     86     80     88     
30     88     70     39     
39     88     70     94     
80     70     88     90     
80     88     86     87     
87     86     80     96     
71     90     85     94     
65     85     90     89     
65     90     71     83     
85     90     89     94     
65     89     90     63     
65     85     89     93     
63     89     90     88     
63     65     89     93     
88     90     63     80     
89     90     88     94     
88     90     70     94     
70     90     72     40     
72     90     83     71     
40     70     90     94     
40     72     70     95     
40     90     71     94     
57     91     60     96     
72     91     86     95     
80     86     91     96     
72     79     91     95     
52     36     91     79     
60     91     36     95     
60     92     57     96     
58     92     60     33     
60     86     92     96     
94     71     40     56     
40     56     71     49     
86     95     91     60     
86     60     91     96     
67     95     79     72     
79     91     95     36     
40     67     95     48     
36     95     22     60     
57     82     96     92     
96     82     57     73     
57     73     82     59     
82     92     57     59     
80     96     91     77     
24     28     48     99     
68     71     79     83     
71     83     68     84     
15     97     20     26     
20     97     15     14     
14     97     15     11     
12     97     26     6     
14     97     11     5     
14     97     5     1     
5     97     12     6     
6     97     1     5     

