Title = " tecplot file for 2D Cavity problem " 
variables = "x", "y", "z", "velX", "cellCentroidY" 
Zone T = "nmesh0" N = 97 E = 233 DATAPACKING = BLOCK, VARLOCATION = ([4-5]=CELLCENTERED),  ZONETYPE=FETETRAHEDRON 
-0.34046036394    -0.4    -0.33816381432    -0.3    -0.41755533647    
-0.5    -0.5    -0.5    -0.23731312734    -0.23426535023    
-0.2    -0.41743449236    -0.5    -0.5    -0.5    
-0.5    -0.5    -0.41934049572    -0.5    -0.5    
-0.13730986025    -0.1336076051    -0.1    -0.4301340215    -0.5    
-0.5    -0.41721146073    -0.41390721939    -0.5    -0.5    
-0.43102263743    -0.036901781235    -0.032990049868    0.0    0.048148862371    
-0.22806143745    -0.22187739611    -0.26065340985    -0.17071343233    -0.39524412155    
0.024046033621    0.045422997231    -0.38708239794    -0.329905448    -0.11265317724    
-0.1661876142    -0.15784823572    -0.23984447934    -0.29730021954    -0.324375812    
-0.32768036898    -0.41331855513    -0.38386720419    -0.077027626336    -0.064485211352    
-0.072300872047    -0.29411423206    -0.059786099941    -0.5    -0.41717198491    
-0.33505609634    -0.33318984043    -0.41718125343    -0.237270241    -0.27943652868    
-0.26598328502    -0.12475030869    -0.17771369258    -0.30145567656    -0.15779961646    
-0.23570425808    -0.14558345079    0.022982079536    -0.42915225029    -0.5    
-0.33527871966    -0.38462617993    -0.5    -0.19939783216    -0.014558871277    
-0.35320955515    -0.30012190342    -0.21922567487    0.050998203456    -0.31082767248    
-0.25045061111    -0.28851944208    -0.15084071457    -0.2187473774    -0.072593301535    
-0.32329005003    -0.04494119063    -0.24666310847    -0.26889336109    -0.021785223857    
-0.16004104912    -0.23460835218    
0.40225554445    0.5    0.5    0.5    0.14405260991    
0.13701722891    0.2    0.1    0.41362215195    0.5    
0.5    0.5    0.5    0.39882630123    0.5    
0.3    0.3398221228    0.34313516485    0.4    0.42811273526    
0.41357937384    0.5    0.5    0.5    0.5    
0.23841454726    0.24399143091    0.5    0.41022239057    0.5    
0.42960306747    0.41664099952    0.5    0.5    0.43198898891    
0.5    0.41170522571    0.5    0.5    0.41926792264    
0.40536576509    0.33852508245    0.41959348321    0.5    0.5    
0.41530150175    0.5    0.5    0.41785821319    0.5    
0.5    0.5    0.41844409704    0.4098803699    0.5    
0.32794748041    0.40615525842    0.40982949734    0.28282529474    0.28702065349    
0.29068362819    0.18741091558    0.18281310797    0.23657560326    0.28684058785    
0.33326255215    0.2972227037    0.32587498769    0.41150510311    0.41700819135    
0.34484261274    0.4127329886    0.42029249668    0.34735909104    0.32651560129    
0.23532819748    0.099400110543    0.051417074759    0.25502586365    0.30273240805    
0.33852183819    0.34385684133    0.35259646177    0.34383583069    0.33397328854    
0.38990306854    0.31110551953    0.28139716387    0.35463738441    0.3250862956    
0.31537845731    0.23928229511    0.21358378232    0.27171844244    0.2582000196    
0.33220386505    0.29482957721    
-0.5    -0.5    -0.40273610862    -0.5    -0.5    
-0.41741953151    -0.5    -0.5    -0.5    -0.41388547428    
-0.5    -0.3436373078    -0.4    -0.33821497299    -0.3    
-0.5    -0.41746151641    -0.5    -0.5    -0.43001042367    
-0.5    -0.41361913031    -0.5    -0.42972940298    -0.5    
-0.41477359039    -0.5    -0.24522302536    -0.23443041046    -0.2    
-0.5    -0.5    -0.41677308049    -0.5    -0.5    
-0.23907009117    -0.35821864009    -0.33437842744    -0.32639203786    -0.39203426242    
-0.39628782868    -0.5    -0.29373461008    -0.2923434589    -0.23738611331    
-0.21305540204    -0.16271000916    -0.13154131445    -0.1380405724    -0.19156443732    
-0.091015987118    -0.14610857891    -0.1942986846    -0.38598746061    -0.3275702142    
-0.5    -0.24099266529    -0.26719513535    -0.33066160669    -0.38763222098    
-0.5    -0.5    -0.38665381074    -0.5    -0.41764786839    
-0.5    -0.41391417384    -0.5    -0.41244345903    -0.41605225205    
-0.1800249517    -0.30420470238    -0.3056512773    -0.32362532616    -0.26109488599    
-0.34255903959    -0.43369024992    -0.43346623165    -0.42455863953    -0.40931525826    
-0.42545887828    -0.32864537835    -0.42535850406    -0.23954698443    -0.14166909456    
-0.069311730564    -0.062851265073    -0.087195985019    -0.27571365237    -0.32601997256    
-0.24064539373    -0.35348820686    -0.33006173372    -0.17146483064    -0.25361275673    
-0.33811929822    -0.34717932343    
211.592084604    204.928534103    207.439782976    395.911980289    398.694520035    
397.043742122    197.46146802    199.186137825    195.267738469    230.326006854    
237.485945093    217.990320702    380.329764325    392.318798057    380.058247238    
347.537533787    374.587836916    194.180055094    198.025448599    196.873562192    
268.735863185    223.037638512    232.499499997    393.761208754    397.214655355    
391.080951571    208.394799946    208.126620695    202.271609128    332.407398211    
369.100551911    218.263351122    263.836295272    230.245567503    200.953018245    
209.257436419    253.38911203    225.150853073    94.6833806626    52.2285440629    
58.2940558985    76.9862441322    116.353959831    93.4377114398    345.082882557    
342.51283737    292.24548863    330.515712424    219.810789536    127.520967207    
76.8131563307    284.470764111    337.289901686    118.638594605    218.252120344    
119.479410759    334.435754703    317.461189843    316.315903424    206.260052636    
267.208773084    103.471673675    53.1477099556    103.078591907    63.333780412    
115.557584735    150.223983278    278.547042492    209.33293317    295.578701762    
32.564152888    28.6648680619    56.7815516258    62.7571287057    32.5178707592    
26.831842658    64.3582677039    89.6044633509    45.3956306889    80.3945130928    
98.5052613624    126.636510146    276.473746408    98.0426115644    53.5584421327    
55.6341021465    76.0586099362    310.251059661    324.66649573    272.55549453    
312.571663524    106.255968855    277.994918613    107.527929852    111.672581613    
192.514757122    44.1028793928    83.2782356415    165.879922826    58.6747977664    
204.683068565    149.193008141    124.060013519    111.46126302    128.218326793    
111.314936387    123.117973363    382.316208243    387.776617033    391.260733259    
367.246178103    387.809562883    388.750675706    384.820077705    361.005488501    
382.739419536    381.863509009    368.904991552    391.062503039    395.120352635    
389.306930094    396.829867934    393.51119572    367.557272828    381.714280713    
356.831084394    385.567240888    286.060220874    71.070174563    64.7242346849    
129.697075409    146.988551457    201.871358879    311.256501972    344.823337101    
301.61641646    336.916724197    102.820545137    145.840444497    191.703129527    
190.345669694    243.833754965    281.528235906    241.94626134    286.849200603    
301.024555788    100.948801123    61.1634264639    115.802071111    160.890770142    
181.095374701    113.72071038    98.7408282939    36.572607737    60.4550346894    
108.849108028    155.877587736    36.1779894359    79.4784163958    104.654462427    
107.971225269    178.301280505    155.963344634    380.5814014    378.998758602    
340.705004694    331.132694512    357.167532522    247.149216621    305.200205218    
397.670475467    356.329281233    380.405760357    340.44837483    308.102084417    
270.663473072    357.03410613    238.970736474    378.526995709    258.369976414    
372.754623215    316.764358235    357.365223147    324.813911518    372.784536847    
289.987650893    312.94306    305.219783311    281.655221253    248.495452716    
200.646429077    158.503047269    231.078941318    275.333971695    239.125868364    
275.928752743    337.275484954    293.522245187    330.862958285    366.739887234    
232.017320345    356.368554064    302.249758213    303.855789972    202.085793199    
156.00666867    194.49581983    178.549255118    213.495506452    211.220969412    
198.024599008    176.105864117    286.825473647    243.077124441    190.827083536    
171.371241987    191.959020082    225.152074255    233.766308634    206.030444009    
185.914219619    267.042180348    244.692708816    185.257712795    361.423972328    
320.828242596    303.43561641    284.732633439    240.796481625    215.279280085    
287.614650658    291.19266295    316.197750622    
0.45497548247    0.474769071649    0.454009784258    0.166277142827    0.145886785531    
0.119869356618    0.456270487392    0.477967301014    0.456480327035    0.453308926454    
0.473295773739    0.452780021471    0.317096983477    0.346305337858    0.375754319482    
0.382365895964    0.399392085354    0.458980740012    0.477959408131    0.453944651382    
0.464461290566    0.481878465007    0.459839282892    0.215895632023    0.24615006368    
0.267637849194    0.456159572704    0.476932130213    0.455810886194    0.404479763647    
0.441126957368    0.482346968244    0.443638057593    0.46015198013    0.455902551683    
0.478808099479    0.461612508173    0.439327659003    0.452452970082    0.477044395044    
0.477064187044    0.456186815564    0.455058817127    0.458488157336    0.36044227657    
0.396616802267    0.435934248033    0.376521270074    0.433790578003    0.478705700862    
0.479549967709    0.437079611292    0.398689366054    0.478892007042    0.433548822399    
0.45973040191    0.376754068695    0.397163202895    0.366065547415    0.432932931508    
0.397392052186    0.459349396868    0.479904382259    0.479376260921    0.479615652379    
0.456179208884    0.438061256712    0.43247786025    0.436438399135    0.395170668033    
0.478072243912    0.478569899684    0.458230489418    0.456590762959    0.479229320409    
0.479441357615    0.456063129814    0.434776739894    0.478983125019    0.458920114686    
0.435661601534    0.436587659565    0.398659117583    0.456915494412    0.476646400798    
0.477010232339    0.455720867664    0.364674993505    0.392061075481    0.434716975974    
0.363317913204    0.453371151688    0.382903485803    0.476487654949    0.435004965859    
0.435974739784    0.476160210096    0.455975881394    0.39377714417    0.474996707036    
0.389177973795    0.416895090253    0.434673192134    0.420718406199    0.416077599704    
0.42012723809    0.397250578411    0.247213436364    0.287356165422    0.290854054467    
0.314605689756    0.237851876945    0.293178456887    0.291436395234    0.327725400892    
0.2529168256    0.224668537399    0.262202012884    0.18989182736    0.192482080804    
0.154985541818    0.189283610201    0.141159980535    0.278575231654    0.285673368243    
0.312569263128    0.24978376918    0.39329808301    0.476634808223    0.477018803778    
0.435745572806    0.419190291392    0.397677158375    0.378410508201    0.390305184789    
0.432512028405    0.370721165707    0.477644231123    0.417049985649    0.434507817667    
0.43604204201    0.398147156361    0.381242084406    0.399630956158    0.436642614879    
0.399064444487    0.478938580164    0.478981231407    0.436146127397    0.376474878657    
0.393070115017    0.435738023184    0.433582369805    0.477964129176    0.456196561531    
0.43512974075    0.389202356602    0.47797414426    0.435086347616    0.421998308195    
0.422301637368    0.38906253283    0.391207920219    0.339432693211    0.341666209926    
0.330093096775    0.3600385632    0.371194470212    0.381483232573    0.376957649395    
0.0973249077691    0.315446711183    0.287972795282    0.306825413625    0.335870475639    
0.334233770545    0.346223306833    0.360537341625    0.343957687552    0.377893541009    
0.31417329551    0.31350022555    0.298977924751    0.343354417586    0.342378571593    
0.345294664178    0.346994655009    0.33025771272    0.361640814725    0.35597287565    
0.371920450588    0.379908331142    0.379052070746    0.349195645641    0.351409350259    
0.320623153483    0.307922473555    0.310033923856    0.348033697934    0.356753062723    
0.377392821107    0.377098025062    0.367714552609    0.29768852817    0.368715605712    
0.371518844332    0.350472650443    0.345967047044    0.314920187312    0.352283076021    
0.354928490338    0.3780750566    0.291411403021    0.342267240844    0.370927700285    
0.372390289064    0.35464518981    0.316827275003    0.326973523688    0.301946615071    
0.334888073025    0.349887661642    0.363658322223    0.392590753777    0.247866830674    
0.289300848637    0.289256297824    0.30889224858    0.348272865096    0.3493297295    
0.294844495327    0.267148573783    0.257280965589    
1     2     3     40     
3     2     1     4     
1     3     4     69     
5     6     7     63     
7     6     5     8     
5     8     6     77     
9     4     10     69     
10     4     9     11     
9     10     11     70     
12     13     14     40     
14     13     12     15     
12     14     15     43     
16     17     18     60     
18     17     16     19     
19     18     17     20     
18     17     20     40     
19     18     20     31     
21     11     22     70     
22     11     21     23     
21     22     23     54     
20     24     25     31     
25     24     20     13     
20     13     24     40     
7     26     27     63     
27     26     7     16     
16     27     26     60     
28     15     29     43     
29     15     28     30     
28     29     30     53     
20     31     18     40     
19     31     20     25     
25     31     24     2     
20     24     31     40     
2     31     24     40     
32     23     33     54     
33     23     32     34     
32     33     34     35     
32     33     35     41     
36     37     38     57     
38     37     36     39     
39     38     37     10     
39     37     36     72     
38     37     10     69     
39     10     37     70     
17     40     18     81     
20     40     17     14     
14     20     40     13     
14     40     17     74     
12     40     14     43     
13     40     12     24     
24     40     12     3     
2     40     1     31     
31     40     1     18     
24     2     40     3     
1     40     3     69     
3     40     12     43     
18     40     1     81     
41     35     32     42     
32     41     42     80     
32     33     41     54     
14     43     40     74     
44     43     28     53     
28     43     44     12     
12     28     43     15     
12     43     44     3     
3     43     44     69     
3     40     43     69     
15     43     14     29     
28     43     29     53     
29     43     14     74     
36     47     46     48     
46     47     36     45     
36     46     45     72     
36     48     46     49     
48     49     36     50     
50     48     49     51     
50     49     36     57     
36     49     46     57     
50     51     49     52     
52     49     50     53     
50     53     49     57     
43     53     44     57     
29     53     43     74     
39     54     22     70     
22     54     39     55     
55     22     54     33     
55     54     39     72     
56     54     32     80     
32     54     56     21     
21     32     54     23     
21     54     56     67     
41     54     33     55     
32     54     41     80     
33     22     54     23     
41     54     55     73     
21     22     54     70     
36     50     57     44     
53     57     50     44     
49     57     53     85     
36     44     57     38     
53     57     43     91     
44     43     57     82     
38     44     57     82     
37     57     36     89     
38     57     37     82     
46     36     57     89     
46     57     49     71     
59     60     26     63     
26     60     59     17     
17     26     60     16     
17     60     59     74     
26     60     27     63     
16     27     60     18     
27     60     18     61     
18     60     17     81     
27     60     61     62     
62     27     60     63     
62     60     61     65     
27     63     62     5     
5     27     63     7     
5     63     62     77     
26     63     7     6     
6     63     5     77     
64     65     66     79     
66     65     64     61     
61     66     65     81     
61     65     64     62     
40     69     1     81     
3     69     44     38     
38     3     69     10     
38     69     44     82     
44     69     43     82     
40     43     69     82     
66     69     9     83     
9     69     66     1     
1     9     69     4     
1     69     66     81     
10     3     69     4     
37     69     38     82     
10     69     37     9     
9     37     10     70     
9     69     37     83     
21     70     54     67     
9     37     70     83     
11     70     21     9     
9     70     21     83     
11     70     10     22     
22     70     10     39     
39     70     37     72     
49     71     57     85     
37     72     70     96     
39     70     72     54     
55     54     72     58     
55     72     39     45     
58     72     55     45     
54     58     55     73     
54     72     58     90     
45     72     39     36     
45     58     72     46     
46     72     36     89     
36     72     37     89     
41     54     73     90     
54     58     73     90     
14     74     59     75     
59     74     14     17     
60     74     17     81     
17     74     40     81     
75     14     74     29     
40     74     43     82     
74     75     29     53     
77     8     6     78     
66     68     79     83     
79     68     66     64     
66     79     65     83     
80     56     54     67     
54     80     67     90     
32     56     80     42     
41     80     54     90     
18     81     1     61     
69     81     40     82     
60     81     18     61     
60     81     65     82     
65     81     60     61     
65     81     66     69     
61     66     81     1     
65     81     69     82     
66     65     69     83     
81     82     60     74     
74     81     82     40     
43     82     74     91     
57     82     43     91     
37     82     57     89     
37     69     82     83     
69     65     82     83     
37     83     82     97     
65     82     83     97     
79     83     68     67     
67     79     83     96     
67     83     68     21     
9     66     83     68     
37     70     83     96     
9     68     83     21     
21     83     70     67     
65     83     79     97     
53     85     57     91     
71     85     49     86     
57     85     71     91     
85     86     71     87     
71     85     87     94     
82     89     37     97     
57     89     82     91     
37     89     72     96     
67     90     80     92     
54     90     67     96     
72     90     54     96     
58     73     90     84     
71     57     91     89     
71     91     85     94     
82     91     89     97     
94     87     71     88     
84     90     58     95     
67     83     70     96     
54     67     70     96     
54     70     72     96     
62     60     65     76     
60     65     76     82     
76     82     65     97     
79     83     96     97     
37     96     83     97     
37     89     96     97     
91     97     82     76     
91     97     76     93     
76     93     97     65     

