Title = " tecplot file for 2D Cavity problem " 
variables = "x", "y", "z", "velX", "cellCentroidY" 
Zone T = "nmesh0" N = 90 E = 233 DATAPACKING = BLOCK, VARLOCATION = ([4-5]=CELLCENTERED), ZONETYPE=FETETRAHEDRON
-0.2    -0.24482126451    -0.23575467071    -0.3    -0.13552710118    
-0.14568896865    -0.1    -0.3434495945    -0.33931008122    -0.4    
-0.33084397547    -0.41817352176    -0.41487956845    -0.17413212761    -0.22436501086    
-0.263208228    -0.23238664304    -0.27598884702    -0.24631274311    -0.21457947791    
-0.16503904625    -0.11743831635    -0.11857869927    -0.068697194278    -0.0798689574    
-0.068677297262    -0.035402467434    -0.090018058647    -0.0096004065126    -0.1486280825    
-0.18488626182    -0.2427204482    -0.242702547    -0.16331023844    -0.23927073798    
-0.30079066753    -0.32834642832    -0.33475478502    -0.12861982796    -0.17706693709    
-0.30063694715    -0.060991029216    0.0074519892223    0.025589508627    -0.14679513415    
-0.17937526107    -0.30518463254    -0.16532303393    -0.1905174493    -0.16084399819    
-0.029528370127    -0.31226351857    -0.29205598748    -0.072128616273    -0.02876667971    
-0.042051788419    -0.38879555464    -0.28339850903    -0.22941367328    -0.24915324152    
-0.047226355567    -0.08715891093    -0.089128628373    -0.24107302725    -0.33818015456    
-0.20621149242    -0.18753695488    -0.16343067608    -0.078038915992    -0.092446729541    
-0.19577488303    -0.33568501472    -0.098757520318    -0.026364712045    -0.12949573994    
-0.12082306296    -0.20082744956    -0.13476338983    -0.096805028617    -0.03245934844    
-0.011179689318    -0.13768592477    -0.04975425452    -0.18743665516    -0.14424198866    
-0.052821282297    -0.14788794518    -0.11940420419    -0.33809819818    -0.2607704401    

-0.5    -0.41283393872    -0.5    -0.5    -0.5    
-0.41208065577    -0.5    -0.41692620871    -0.5    -0.5    
-0.064639869175    -0.079890802503    -0.13365527251    -0.5    -0.41281157732    
-0.5    -0.5    -0.40747857094    -0.5    -0.41370663047    
-0.5    -0.40743523836    -0.5    -0.5    -0.41088786721    
-0.5    -0.5    -0.32515165815    -0.40420889854    -0.057836333107    
-0.10745344311    -0.11206135244    -0.0030102295461    -0.15246265199    -0.2256248161    
-0.21857130527    -0.1703180259    -0.25977108713    -0.23243690152    -0.20350812376    
-0.11567308009    -0.13304965671    -0.12737318873    -0.079550209737    0.050669524734    
-0.003392345272    -0.0049290945753    -0.41093692183    -0.32145904978    -0.36317887902    
-0.41277977824    -0.40374770761    -0.32854859337    -0.19458571076    -0.23964649146    
-0.010382949375    -0.0022261636332    -0.27121648192    -0.28948011994    -0.17014044523    
-0.006048885585    0.066371306777    -0.097862228751    -0.06353725493    -0.066976070404    
-0.29430642724    -0.41207942367    -0.5    -0.31538873911    -0.37738835812    
-0.32195004821    -0.19829428196    -0.024031469598    -0.097555346787    -0.17197673023    
0.022327756509    -0.3187790215    -0.32122588158    -0.29029551148    -0.32711231709    
-0.3218523562    -0.32231086493    0.0026446154807    -0.23401971161    -0.068703122437    
-0.21266616881    -0.27982017398    -0.23011241853    -0.33556306362    -0.35306036472    

0.5    0.5    0.41442177303    0.5    0.41387018658    
0.5    0.5    0.5    0.4034895322    0.5    
0.5    0.38472351432    0.5    0.32721282985    0.35906100273    
0.33554839985    0.24083079202    0.29017758369    0.13606494283    0.17940241098    
0.16131149801    0.17871151865    0.23831385826    0.13650920358    0.38608124852    
0.32759987319    0.41677370705    0.5    0.30085864663    0.5    
0.4218134582    0.5    0.5    0.5    0.5    
0.41720235348    0.5    0.5    0.5    0.40948286653    
0.41369006038    0.5    0.39857259393    0.5    0.5    
0.41109591722    0.40362745523    0.27216950059    0.5    0.41577538848    
0.20995981991    0.40589597821    0.5    0.41507530212    0.5    
0.36995971203    0.42494803667    0.29248830676    0.41278365254    0.32927832007    
0.5    0.41912767291    0.39003032446    0.34509626031    0.35113686323    
0.20130155981    0.088892474771    0.05839041274    0.4012170732    0.30649361014    
0.31692281365    0.3139936626    0.43335348368    0.28269585967    0.30040669441    
0.35181468725    0.082229703665    0.14789235592    0.3097256124    0.25056269765    
0.33971264958    0.36044147611    0.26697871089    0.32667097449    0.30619335175    
0.32793805003    0.43275335431    0.36438843608    0.3235745132    0.20444226265    

399.764981891    399.890933752    399.644734891    399.367310898    399.757703224    
399.869673592    399.396949449    399.523791242    399.771592459    399.934514607    
399.448176372    399.419513769    399.136064109    398.716210015    399.246886493    
398.822379875    399.16939245    398.392210593    398.761123178    397.952736453    
398.809330089    399.00773849    397.83704452    397.602170378    398.380676001    
397.620840323    396.898389435    396.609006728    399.268362528    399.496925868    
398.495593878    398.717138873    397.987289243    399.662869464    399.207497197    
397.61978194    397.052047653    394.49067311    393.342583178    394.47036344    
395.780751959    399.219263185    398.632202482    397.517236155    396.872835839    
398.380937859    398.043208226    398.433652173    397.96965607    396.484504556    
395.294350533    396.715895944    394.070637102    393.24487737    397.19567769    
398.610886406    398.674090999    395.248003573    392.631389677    390.563725328    
397.288214366    394.933443853    391.753132112    393.18082372    395.231312633    
389.34173554    391.103442055    388.021923473    385.589993935    394.269157684    
396.320696557    394.27947969    398.09788176    398.893459271    398.038710232    
397.536841316    396.144861847    396.415624678    397.64307746    398.882648245    
399.460756354    399.026967629    399.547107136    398.34542924    398.97734016    
399.132417509    398.584267246    399.200760157    397.465455221    396.157984193    
399.779913234    399.620043727    398.601266246    399.764709721    399.554059655    
398.951298563    398.321539064    397.898427828    395.432268784    396.328785485    
394.04088199    397.354624821    392.798055023    391.061423094    399.406062046    
399.410663494    398.292828392    398.613308002    399.156214929    397.302444267    
394.368899026    387.38624931    387.522658635    392.26554129    392.595353861    
389.056158244    393.468391261    392.882621942    396.194633067    395.186860106    
391.761946909    386.283791814    381.811730338    383.396382781    394.544407195    
393.652652054    393.409883581    398.847783771    393.981057479    398.064698145    
397.166642395    396.889179251    393.490315563    398.024811911    394.485977251    
397.964659393    398.551387526    395.988893995    396.141325682    395.444045533    
396.553349215    392.683165974    392.706820193    390.522945865    391.791658083    
396.983147618    387.242855301    386.406637101    393.69843263    380.828828252    
380.254771617    398.245247743    397.330744666    387.439832897    381.790835967    
383.145155226    392.580426412    387.896195012    381.161830029    378.529082548    
384.207835488    375.841145773    388.755365541    384.203849663    388.310317367    
389.119896377    384.356268759    376.322928729    379.933421614    391.130980606    
391.561160738    392.755156715    392.660085772    392.959153346    392.337378731    
393.952705412    392.704525876    392.036606202    390.806083998    393.977143403    
395.581740603    394.378868055    392.413986556    395.999152106    392.895018405    
393.940609667    396.174877457    393.267027532    396.698502296    397.067742586    
390.082723242    394.4042259    391.944140536    391.344984454    393.4365586    
394.143003595    395.894223275    394.700842971    394.799038151    392.52818621    
396.521177583    394.855617604    367.117142419    369.927639841    379.26910703    
382.691979058    377.310632067    389.500381401    387.607399799    392.201994491    
393.560001914    393.914908481    396.759632689    394.453449602    396.486215974    
398.992975375    398.064097188    394.604296624    399.528358112    399.291446918    
397.077305161    394.468767708    389.618044046    388.850061832    391.390247837    
392.853527968    397.492217323    397.819268655    393.877105233    394.431466014    
396.690581523    395.892754621    395.046874774    
-0.455311649934    -0.47772403584    -0.453680860176    -0.443535108344    -0.476858574166    
-0.477507314528    -0.423605027318    -0.453741684273    -0.455420132448    -0.47924874226    
-0.477382301252    -0.477483689335    -0.443939846993    -0.453489790266    -0.453174876988    
-0.455260595415    -0.475674578687    -0.454213889279    -0.431624784813    -0.433651825749    
-0.477726005922    -0.477962138878    -0.455917782185    -0.454612727323    -0.476124665037    
-0.456255547988    -0.433874221697    -0.433742526478    -0.476932626361    -0.47731601293    
-0.44801552751    -0.42386677561    -0.426070186696    -0.47678372161    -0.423021604928    
-0.106765200294    -0.069193381898    -0.0828199011324    -0.0426789183248    -0.103496763152    
-0.144603109267    -0.218525405955    -0.181209102755    -0.154157158101    -0.188313276887    
-0.249051084795    -0.234641060714    -0.204030985768    -0.174412337658    -0.195484495912    
-0.163465431936    -0.23368181804    -0.135935098213    -0.141066091841    -0.0986836223439    
-0.120487339229    -0.115817190223    -0.0665802509781    -0.177008707693    -0.149086515755    
-0.0732139496434    -0.0467769548578    -0.0577074912666    -0.0077710658995    -0.0033544565589    
-0.0306176201622    -0.0490338011907    -0.0729356455961    -0.0441690995367    -0.0481907193983    
-0.424716437046    -0.379288203039    -0.456644096139    -0.477629072559    -0.448818390644    
-0.432922667075    -0.396934817202    -0.38761983607    -0.426097820104    -0.32301759406    
-0.355322224871    -0.377769039054    -0.377475821884    -0.354080498059    -0.348023643868    
-0.42228664664    -0.370319840061    -0.432477961071    -0.379372042341    -0.424755860866    
-0.475147233175    -0.474588814728    -0.377837936218    -0.433444837451    -0.390257259663    
-0.358473983532    -0.199452446222    -0.17788076563    -0.144179442666    -0.226451960501    
-0.160837092245    -0.236307907927    -0.0658482477841    -0.0480228664649    -0.338108761586    
-0.290900792359    -0.314072635931    -0.278099044681    -0.275481925359    -0.248769036353    
-0.236019545444    -0.115002993411    -0.162654631316    -0.175266650195    -0.20670114185    
-0.157381130839    -0.13785313454    -0.0965224929502    -0.109878711848    -0.0804224578207    
-0.0726853822994    -0.0627014403781    -0.0606826538005    -0.103837242337    -0.368543311496    
-0.369379406788    -0.359600482643    -0.477357246455    -0.38798867342    -0.321641627338    
-0.354645629156    -0.426062689616    -0.3812247889    -0.446208538282    -0.380387117472    
-0.424989088549    -0.466913842736    -0.378231258412    -0.380069306683    -0.372743607264    
-0.366840763727    -0.215266760215    -0.224866139509    -0.0618723102512    -0.0315299256865    
-0.0628746813068    0.00774803536567    -0.0654166683221    -0.0894727321335    -0.0831980336445    
-0.0278686817422    -0.0573804276474    -0.00831940837445    -0.0593042170468    -0.0262806126693    
-0.0683452621731    0.0226427602307    0.0232894287235    0.0155895211332    0.013729392788    
-0.134637369375    -0.0684321432428    -0.193260386454    -0.129599772768    -0.145970949581    
-0.171938901906    -0.112403697573    -0.0398027413549    -0.0384636434934    -0.328739292976    
-0.321092859101    -0.350726164964    -0.32064601824    -0.366337824133    -0.33879631909    
-0.357311641203    -0.32933160075    -0.357721517158    -0.287317431289    -0.326710024827    
-0.356152046038    -0.327170884258    -0.284326016612    -0.357580964101    -0.290222310963    
-0.328861731202    -0.361799263901    -0.288290074726    -0.319964381762    -0.382241181097    
-0.209059627955    -0.278974790087    -0.28015552325    -0.284866600478    -0.309856930263    
-0.25289680308    -0.305118224003    -0.290600357939    -0.252080919729    -0.269133329749    
-0.337821686255    -0.280543914469    -0.0147266319496    -0.0442448606736    -0.109449743469    
-0.143168128991    -0.0293787233865    -0.18110494244    -0.174915299684    -0.263291626579    
-0.237567867448    -0.267291196335    -0.313299005827    -0.227168436931    -0.256535252778    
-0.269766518574    -0.28861962503    -0.255499013481    -0.290192683857    -0.264122703991    
-0.346710250042    -0.285791177392    -0.231885114223    -0.226266015015    -0.178477637138    
-0.240134697989    -0.357873653356    -0.389142899672    -0.349061264192    -0.346252858035    
-0.339981149209    -0.335274457327    -0.338294761518    
1     2     3     6     
3     2     1     4     
4     3     2     52     
5     6     3     50     
3     6     5     1     
1     6     5     7     
3     6     2     50     
7     6     5     25     
8     9     4     52     
4     9     8     10     
14     15     3     16     
3     15     14     5     
5     3     15     50     
5     15     14     25     
16     15     3     52     
14     15     16     18     
18     16     14     17     
14     18     17     48     
16     18     15     52     
14     15     18     48     
21     17     20     23     
20     17     21     19     
21     20     19     67     
21     22     23     20     
23     22     21     24     
24     23     22     51     
20     22     23     48     
21     22     20     67     
5     25     14     26     
26     5     25     27     
26     25     14     70     
15     25     5     50     
14     25     15     70     
27     5     25     7     
5     25     6     50     
30     31     32     34     
32     31     30     33     
33     32     31     41     
33     31     30     46     
30     31     34     63     
32     34     31     40     
35     36     37     38     
37     36     35     32     
32     37     36     41     
32     36     35     40     
35     36     38     59     
39     40     35     87     
35     40     39     34     
34     35     40     32     
34     40     39     54     
36     40     32     41     
35     40     36     59     
32     40     31     41     
34     31     40     63     
11     13     41     12     
41     13     11     37     
11     41     37     32     
12     41     11     57     
36     40     41     60     
31     41     40     60     
11     41     32     33     
11     41     33     47     
33     41     31     47     
45     46     30     73     
30     46     45     33     
31     46     33     47     
30     46     31     73     
31     47     41     64     
31     46     47     64     
11     41     47     57     
23     48     22     70     
20     22     48     66     
20     48     23     17     
14     48     17     23     
23     14     48     70     
17     48     18     20     
20     48     18     90     
15     18     48     71     
15     48     14     70     
49     50     28     87     
28     50     49     6     
6     28     50     25     
6     50     49     2     
28     50     25     69     
2     50     49     59     
2     3     50     15     
15     50     2     59     
3     15     2     52     
25     50     15     82     
22     51     23     70     
3     9     52     4     
52     9     3     16     
2     52     15     59     
4     52     2     8     
8     52     2     53     
53     52     2     59     
42     54     39     55     
39     54     42     34     
34     54     42     63     
39     54     40     87     
34     40     54     63     
55     54     39     87     
41     57     12     65     
41     47     57     65     
53     59     2     49     
53     59     49     35     
49     59     50     87     
35     59     49     87     
53     59     35     38     
40     59     35     87     
36     59     40     84     
31     41     60     64     
31     60     40     75     
36     60     41     72     
40     60     36     84     
43     63     54     86     
54     63     43     42     
42     63     43     73     
42     34     63     30     
30     63     42     73     
30     31     63     73     
41     64     47     65     
46     64     31     85     
31     64     60     85     
20     66     48     90     
22     48     66     70     
22     66     20     78     
67     19     21     68     
20     67     22     78     
50     69     28     87     
25     69     50     82     
23     70     51     29     
22     51     70     80     
29     23     70     26     
29     70     51     80     
26     70     29     25     
23     70     26     14     
25     70     29     81     
15     71     48     70     
18     48     71     90     
18     71     15     89     
60     72     36     58     
58     36     60     84     
56     73     44     43     
44     73     56     61     
61     44     73     42     
61     73     56     62     
43     56     73     63     
43     73     44     42     
56     63     43     74     
56     73     63     76     
42     73     61     30     
61     30     73     45     
31     73     46     63     
46     63     73     76     
46     31     63     85     
45     73     61     62     
45     46     73     62     
46     73     62     76     
56     62     73     76     
43     74     63     86     
56     63     74     85     
40     75     60     84     
31     60     75     85     
31     75     40     63     
63     75     40     88     
31     75     63     85     
63     56     76     85     
46     63     76     85     
79     78     70     80     
70     78     79     66     
66     70     78     22     
66     79     70     71     
67     78     20     77     
20     77     78     66     
29     70     80     81     
70     79     80     81     
70     80     78     22     
79     80     81     86     
79     81     70     69     
69     81     70     25     
79     69     70     82     
79     81     69     86     
69     25     70     82     
79     82     71     84     
71     82     79     70     
70     71     82     15     
79     69     82     88     
50     82     69     87     
70     82     25     15     
40     75     84     88     
58     84     71     59     
71     84     58     66     
66     71     84     79     
66     58     71     90     
59     58     84     36     
59     71     58     89     
59     84     71     82     
40     84     59     87     
82     84     79     88     
59     82     71     15     
59     84     82     87     
76     85     56     83     
56     83     85     74     
63     74     85     75     
63     74     75     86     
46     85     76     64     
54     86     63     88     
63     86     75     88     
79     86     69     88     
84     87     40     88     
82     87     84     88     
59     87     82     50     
40     87     54     88     
55     54     87     69     
55     87     39     28     
69     87     55     28     
54     87     69     88     
39     28     87     49     
49     87     39     35     
59     50     82     15     
69     87     82     88     
79     88     84     75     
75     79     88     86     
54     88     63     40     
69     88     86     54     
15     59     52     89     
18     15     52     89     
66     71     70     48     
48     66     71     90     
71     59     15     89     
58     89     71     18     
18     71     58     90     

