Title = " tecplot file for 2D Cavity problem " 
variables = "x", "y", "z", "velX", "cellCentroidY" 
Zone T = "nmesh0" N = 99 E = 234 DATAPACKING = BLOCK, VARLOCATION = ([4-5]=CELLCENTERED),  ZONETYPE=FETETRAHEDRON 
0.2    0.23892791459    0.23153735228    0.3    0.051624035259    
0.1    0.048148862371    0.0    0.13209314197    0.13736922805    
0.42836019649    0.42913825798    0.4    0.5    -0.032990049868    
0.05350411837    0.024046033621    0.045422997231    -0.0022199044737    0.10691646487    
0.11026169429    0.057250451248    0.15323724917    -0.064485211352    0.1615903074    
0.18354015052    0.1743232997    0.11269637197    -0.0013214884093    -0.058995011316    
0.13884566706    0.12572585046    0.16471370862    0.23988850923    0.033159035033    
0.073618157014    0.21497009695    0.24030808209    0.2551958203    0.30577623844    
0.33595085147    0.32618201123    0.41578080408    0.21983735443    0.21220782399    
-0.070235245477    -0.016939789057    -0.013743156412    0.02532113716    -0.12131308764    
0.010070850813    0.090107783675    0.098318660603    0.10177732259    0.26118835807    
0.32383922021    0.071843892336    0.0042388816364    0.23029404879    0.28412730101    
0.022982079536    0.05798689276    0.33957649135    0.30595946312    0.34128198028    
0.34028389127    0.39956721182    -0.014558871277    0.10747696459    0.17720426619    
0.33006593585    0.15989041328    0.13184266684    0.32872989774    0.050998203456    
0.040414143354    0.16359171271    0.27145576477    0.18004000187    0.23749235272    
0.13241352141    -0.072593301535    0.041503503919    -0.04494119063    0.12168388069    
0.19700033963    0.13448160887    0.23640879989    -0.018017932773    0.06172849983    
0.10967241228    -0.0049792267382    -0.0081724626943    0.034904532135    -0.13426069915    
0.057037685066    0.089858144522    -0.021785223857    -0.057597957551    
0.5    0.5    0.41131431    0.5    0.5    
0.5    0.43198898891    0.5    0.41540583426    0.5    
0.5    0.42790726717    0.5    0.5    0.5    
0.5    0.40536576509    0.33852508245    0.5    0.40951111913    
0.5    0.5    0.5    0.5    0.32314076394    
0.41706010699    0.5    0.40081068873    0.40343809128    0.5    
0.13552636399    0.074683457613    0.043906056781    0.10542630627    0.14316341544    
0.044617960863    0.047655455768    -0.0063659954075    0.32669885795    0.33583059907    
0.39862014685    0.28217272988    0.33947748232    0.22402612177    0.29128858447    
0.14959785779    0.17749716341    0.23973024376    0.080155737698    0.12194701284    
-0.046196698417    0.17115314305    0.23476967469    0.29881185293    0.16721591353    
0.17219533633    -0.018677968532    -0.10996957123    0.42262995243    0.5    
0.42029249668    0.41847035289    0.051370315306    -0.0047878199257    0.41375112534    
0.5    0.5    0.30273240805    0.38607373834    0.20481482148    
0.23920804262    -0.021623669192    -0.054455167323    0.11139494926    0.34383583069    
0.23833499849    0.30417972803    0.318215698    0.12659868598    -0.054580211639    
-0.011960457079    0.3250862956    0.32977220416    0.23928229511    0.22956226766    
0.41255375743    0.31652632356    0.22946728766    -0.023071698844    0.042389310896    
0.35291832685    0.29079681635    0.36908686161    0.14440822601    0.17148178816    
-0.029815310612    0.25087565184    0.2582000196    0.10398437828    
-0.5    -0.41456064362    -0.5    -0.5    -0.43246794108    
-0.5    -0.5    -0.5    -0.5    -0.41665129901    
-0.43012969401    -0.5    -0.5    -0.5    -0.41677308049    
-0.33962245788    -0.39628782868    -0.5    -0.23662913003    -0.17987951636    
-0.24055238104    -0.14322731787    -0.15585884128    -0.3275702142    -0.5    
-0.38605517149    -0.32695359205    -0.30237615108    -0.17091374099    -0.13288478237    
-0.5    -0.42226782441    -0.5    -0.5    -0.5    
-0.5    -0.40872132778    -0.5    -0.5    -0.40458709002    
-0.5    -0.5    -0.5    -0.5    -0.41133615375    
-0.5    -0.4123454988    -0.5    -0.40952453017    -0.41681706905    
-0.5    -0.41247218847    -0.5    -0.40432164073    -0.40178945661    
-0.5    -0.40617185831    -0.4079644084    -0.29811424017    -0.3307702295    
-0.3056512773    -0.10462293774    -0.5    -0.4174105227    -0.41521838307    
-0.41754678867    -0.33849824765    -0.40931525826    -0.41986095905    -0.41892081499    
-0.40299513936    -0.42166528106    -0.5    -0.43074804544    -0.23954698443    
-0.38140290976    -0.31372946501    -0.27856189013    -0.34880107641    -0.41262426972    
-0.32144552469    -0.32601997256    -0.33499318361    -0.35348820686    -0.36035710573    
-0.2097568959    -0.19554537535    -0.32144889235    -0.39372223616    -0.3359747529    
-0.081502474844    -0.15602079034    -0.078917212784    -0.33338880539    -0.36514228582    
-0.30239072442    -0.26400905848    -0.25361275673    -0.34029144049    
200.415009778    207.408126706    209.315873377    270.863531138    201.48612624    
131.091554389    231.829325233    149.183678917    193.467822423    175.260444944    
198.902541657    225.487800972    222.866590749    171.767161113    58.5886740147    
75.6236637187    125.022241452    206.854867547    57.639697587    28.7290539171    
26.2969580391    49.1393897398    50.0660013846    43.650788801    313.624814306    
321.942495934    271.783857893    300.001430314    197.840764495    101.143156517    
209.395345679    53.7420672623    91.2425377829    80.9068871251    59.4305424006    
38.5192490325    56.2596844461    106.334971423    133.724504593    109.681867239    
29.0509918117    76.5337044026    61.1370591016    395.565259435    392.885429155    
388.07043054    382.813724488    386.350920776    392.879536762    383.619039116    
390.904975405    391.549911002    393.451659623    391.110993154    387.131241719    
377.88768655    374.646254008    356.483857038    320.433784621    332.307357442    
372.546924871    346.520228969    358.006913595    370.62145156    380.037719393    
380.622789932    354.670428431    357.976846171    368.675620158    286.498215124    
252.662392707    296.709114291    373.943804009    385.66272711    383.245553268    
376.255902724    389.163375256    382.988792054    362.886644377    371.159457267    
359.263121023    359.340117395    354.698474702    378.855832062    375.512444165    
360.072799938    368.792230554    340.487093114    350.557956564    381.576618515    
388.309585779    385.448130895    379.417756674    388.938275795    384.481470688    
371.75897457    386.872641748    177.509006085    42.5523267017    110.283004853    
150.728555809    115.125628537    75.4378594692    127.918099842    168.240531001    
29.9246446438    27.7015349006    79.2553444408    123.435539112    81.7699528291    
110.80862823    127.827453153    395.675748061    391.208455801    389.265809875    
385.561210359    314.40642399    292.366922127    95.3163583116    136.390713315    
57.7058546538    53.2364602268    112.694061526    78.7831226821    319.672075819    
352.361816849    358.51615164    374.334744656    344.20020198    306.874380838    
274.893782663    299.992477235    198.492131997    189.35500789    101.808931731    
338.531445725    294.712432963    359.449755402    250.668000232    310.331010571    
248.71220592    268.478256517    341.082227298    338.28374965    362.431271618    
363.245925769    358.464946451    391.217389004    375.054238795    366.536680694    
362.739346952    378.348778124    391.28260764    337.316894576    352.94169093    
347.308848228    383.303055616    319.73854591    386.46151344    339.634623188    
376.96991536    375.312775706    395.596445941    377.073730318    396.294047327    
394.359161756    389.456087798    395.725378981    168.737600026    149.281495684    
140.838413768    326.148335313    293.46568445    348.531624989    337.33182061    
323.565726489    160.28720229    212.22099491    340.594774704    349.565135392    
364.593637865    378.901832707    358.980471838    370.222731411    283.084640635    
286.092611318    199.194481547    222.821082093    183.554677692    185.744426255    
195.352323378    241.636561849    261.280962869    237.561731963    266.978027712    
246.6120688    318.813593355    263.898505675    271.594246014    287.830555714    
256.085393387    315.668949714    290.78244185    321.931967381    332.424325354    
186.292624844    192.415582155    167.65941371    137.567922497    210.47114256    
163.103859913    372.788089777    387.450735369    377.85710652    358.011563124    
371.130378602    350.890847546    205.541277321    141.62665633    127.255498607    
146.576529792    293.329904556    352.241231306    289.965371854    326.061479508    
349.083640428    263.160871399    230.267370344    281.575651696    216.922233895    
210.598102447    361.187990164    346.828338476    331.619500177    
0.455527397225    0.477234560095    0.454905719822    0.461456768754    0.483035004998    
0.482489743842    0.434179105748    0.477525264534    0.478431627771    0.450191744344    
0.457100625841    0.458077461885    0.481809010563    0.457752806524    0.475519303751    
0.475197299129    0.448341809842    0.431264972564    0.455949372826    0.4769488329    
0.476830934149    0.453277923021    0.455556817177    0.457251195527    0.361664450925    
0.391660917278    0.435906208114    0.384655891011    0.431178303277    0.478661923458    
0.434331343379    0.479273099727    0.453773383901    0.460369387655    0.456367100968    
0.474833015098    0.474045819588    0.446441495326    0.426675051607    0.434776785033    
0.475707941055    0.433014132977    0.433310362094    0.0752481497289    0.0906497791263    
0.0685138887798    0.130464737394    0.0864844502907    0.0999374297635    0.130948756381    
0.034503822105    0.0156930598283    0.0479850791966    0.0361128524335    0.036030591767    
0.111652781353    0.337066689475    0.368341521645    0.389371642392    0.341718222858    
0.338933227008    0.369844366359    0.308769919158    0.259176402344    0.279332633089    
0.290412763701    0.286497670925    0.338074050628    0.261787449103    0.36515895073    
0.395584259338    0.353048262149    0.183430556838    0.177638326645    0.0446304091186    
0.117390756952    0.171332952788    0.197607998268    0.221802568998    0.142827295153    
0.207161896422    0.117478156477    0.143240704945    0.18679519838    0.146230912867    
0.265195340313    0.299045014824    0.336290166919    0.293147333117    0.17379424611    
0.16753759838    0.13912737589    0.20120895301    0.0146264805317    -0.00113412422304    
0.0445982344156    0.0199740254347    0.385064093388    0.480437490132    0.456493095117    
0.437839450153    0.431967950111    0.457639779984    0.424186723823    0.388607614042    
0.48069171021    0.480463071424    0.433227619483    0.394147559756    0.430968961297    
0.395783257133    0.377750237781    0.0370903142885    0.06549104101    -0.00359970395721    
0.0651617487586    0.432219291562    0.454291279993    0.477714484387    0.477650590046    
0.477745482459    0.47802515174    0.477068732675    0.477561237995    0.435390768357    
0.394894064464    0.253152368966    0.278975118707    0.26846366371    0.336748535664    
0.334393954413    0.356110431558    0.37545458329    0.380518942284    0.469051339865    
0.391883013313    0.390194642981    0.364522807753    0.354611056971    0.32479951051    
0.347938224426    0.320483160408    0.279606672469    0.223752530961    0.222310226296    
0.231221068368    0.143625741895    0.166557989914    0.129823298104    0.114658640411    
0.135322999658    0.106932124006    0.199691898103    0.226350131757    0.228730878544    
0.235973120041    0.247457072334    0.257495612981    0.229138208978    0.232989526109    
0.173788651558    0.0223999960269    0.00310677158577    0.00668064059625    -0.00996034421638    
-0.0341825134017    -0.00814184837182    0.109866993868    0.373410612697    0.368443712199    
0.361306343366    0.234526988696    0.29304076877    0.239708803816    0.182159178263    
0.239477670334    0.383744486652    0.354539197629    0.181377193462    0.128619220865    
0.0577359315244    -0.00944429209701    0.058834305293    0.0222041678813    0.278048294863    
0.274945576434    0.343689665024    0.307486551938    0.340850983935    0.354696710877    
0.369312392946    0.330384085025    0.299801434993    0.34141906662    0.267636479186    
0.288561708524    0.199149142492    0.291561168439    0.263386822188    0.281562978396    
0.279568420347    0.239454839625    0.263123361133    0.194937699364    0.166359778507    
0.362764529212    0.338348768096    0.358705912934    0.384424970163    0.304427377895    
0.339320232304    0.0203604711046    -0.0497895354484    -0.0460675905101    0.0860543525037    
-0.00782728407674    0.0982969494828    0.299244418455    0.364208273892    0.36868192973    
0.354828862622    0.214678949374    0.0926849588271    0.218866160913    0.165936831252    
0.126296219223    0.268603801655    0.294831719838    0.222928262913    0.285675465774    
0.313972077685    0.120821240655    0.144199230322    0.172372110008    
1     2     3     26     
3     2     1     4     
4     3     2     65     
5     6     7     9     
7     6     5     8     
5     7     8     15     
5     9     7     69     
5     6     9     10     
9     10     6     1     
5     10     9     69     
1     9     10     26     
11     12     13     65     
13     12     11     14     
7     15     5     17     
16     17     15     24     
15     17     16     5     
5     17     16     69     
5     7     17     69     
19     20     21     61     
21     20     19     22     
22     21     20     23     
22     20     19     29     
23     21     20     86     
23     20     22     62     
25     26     3     45     
3     26     25     9     
9     3     26     1     
9     26     25     69     
10     26     9     69     
1     26     10     2     
3     26     2     65     
2     26     10     27     
27     26     10     28     
2     26     27     59     
21     28     16     61     
16     28     21     27     
27     16     28     10     
10     16     28     69     
10     28     26     69     
27     26     28     59     
22     29     19     30     
19     29     20     61     
22     20     29     62     
31     32     33     36     
33     32     31     34     
34     33     32     37     
34     32     31     70     
35     32     36     49     
36     32     35     31     
31     32     35     52     
36     32     33     72     
33     37     38     72     
38     37     33     34     
34     38     37     64     
32     37     33     72     
34     37     32     70     
39     40     41     42     
41     40     39     3     
3     41     40     65     
3     40     39     45     
42     40     41     43     
43     40     41     65     
39     40     42     45     
44     45     42     71     
42     45     44     39     
39     45     44     25     
42     45     40     71     
25     39     45     3     
25     45     44     70     
40     45     3     26     
3     40     26     65     
26     45     25     69     
48     35     47     52     
47     35     48     46     
36     49     32     57     
35     32     49     52     
35     52     53     31     
53     52     35     48     
48     53     52     76     
47     52     35     49     
48     52     47     76     
49     52     32     94     
47     52     49     94     
53     31     52     70     
31     32     52     70     
53     54     25     70     
25     54     53     18     
18     25     54     69     
18     54     53     68     
44     55     34     70     
34     55     44     56     
56     34     55     74     
56     55     44     71     
49     57     36     51     
51     49     57     89     
32     57     49     90     
36     57     32     72     
26     28     59     77     
59     27     2     60     
2     59     60     65     
26     59     2     65     
16     61     28     17     
17     16     61     24     
17     28     16     69     
17     61     28     83     
19     61     16     24     
16     61     19     21     
28     61     21     20     
20     28     61     75     
20     21     28     86     
20     61     29     75     
20     29     62     92     
38     64     34     63     
63     64     34     74     
37     64     38     80     
34     64     37     74     
3     41     65     4     
4     41     65     13     
4     65     2     66     
66     4     65     13     
66     65     2     60     
66     65     60     67     
66     65     11     13     
11     65     66     67     
13     65     12     41     
41     65     12     43     
48     68     53     76     
53     68     48     18     
53     68     54     76     
18     54     68     17     
17     54     68     83     
17     18     54     69     
26     69     28     77     
17     28     69     83     
10     16     69     5     
7     69     9     18     
17     69     7     18     
18     69     9     25     
17     69     54     83     
54     69     25     45     
45     69     26     77     
45     54     69     77     
45     25     54     70     
55     70     45     88     
45     70     55     44     
44     55     45     71     
52     70     32     79     
34     70     31     44     
37     70     34     55     
32     70     37     79     
37     70     55     79     
34     37     55     74     
31     44     70     53     
54     70     52     85     
52     70     54     53     
53     54     52     76     
25     53     70     44     
45     70     54     85     
44     71     42     56     
45     71     55     88     
55     71     56     74     
37     72     32     81     
36     72     33     73     
32     72     57     81     
33     73     72     38     
73     72     38     80     
38     72     37     80     
34     63     74     56     
28     61     75     83     
28     75     20     87     
20     75     29     92     
52     76     54     85     
54     76     68     83     
48     68     76     47     
47     76     52     94     
68     76     47     84     
28     59     77     86     
28     77     69     83     
52     70     79     85     
52     79     32     94     
37     32     79     81     
37     80     72     81     
32     79     81     90     
57     32     81     90     
68     83     76     84     
54     76     83     85     
77     83     28     75     
75     77     83     97     
75     28     77     87     
61     75     83     82     
61     83     17     82     
54     83     69     77     
82     83     68     84     
68     83     82     17     
76     84     83     98     
83     84     82     98     
47     84     76     94     
54     85     83     77     
76     83     85     97     
77     54     85     45     
77     85     83     97     
45     70     85     88     
45     85     77     88     
76     85     52     94     
52     85     79     94     
86     59     77     78     
77     86     78     87     
28     86     77     87     
20     86     28     87     
75     87     77     97     
20     87     75     92     
57     89     49     90     
51     89     57     58     
58     89     57     96     
32     90     49     94     
57     89     90     96     
32     79     90     94     
75     92     87     97     
20     92     62     91     
29     62     92     93     
91     92     62     93     
85     94     76     97     
49     94     90     99     
76     94     84     98     
47     84     94     99     
47     94     49     99     
83     97     76     98     
75     97     83     98     
76     97     94     98     
97     98     75     92     
83     75     98     82     
99     49     47     50     
47     99     50     95     
47     99     95     84     

