Title = " tecplot file for 2D Cavity problem " 
variables = "x", "y", "z", "velX", "cellCentroidY" 
Zone T = "nmesh0" N = 89 E = 233 DATAPACKING = BLOCK, VARLOCATION = ([4-5]=CELLCENTERED), ZONETYPE=FETETRAHEDRON
0.027520179138    0.071248449385    0.13124883421    0.05497633249    0.060427083065    
0.070297665894    0.13032715471    0.025589508627    0.057757489939    0.011399649084    
-0.053748317046    0.10916212201    0.17415370047    0.15496959329    0.23624265987    
-0.060991029216    0.0074519892223    0.17495837808    0.17347851396    0.084975063801    
-0.042051788419    0.094177126884    -0.08715891093    -0.047226355567    0.031862605363    
0.15861544013    -0.026364712045    0.03918877244    0.13161307573    0.10399028659    
0.22722111642    0.20344738662    0.28961977363    0.20461961627    0.16945490241    
0.25203999877    0.056703593582    -0.04975425452    0.12949590385    0.051468979567    
0.028138827533    0.20047597587    0.14986515045    0.14475268126    0.11585833877    
0.21100731194    0.029059011489    -0.019574807957    0.13262072206    0.15730819106    
0.14505885541    0.1281991899    0.033566184342    0.06426165998    0.14146855474    
0.021336633712    0.099765390158    0.12223561108    0.0158755593    -0.032366167754    
-0.039546322078    0.079498335719    -0.066529624164    -0.04713287577    0.22022998333    
0.13536153734    -0.071007244289    -0.031658235937    0.0094026327133    0.042061634362    
0.093645699322    0.19546446204    0.09027723223    0.11529561877    -0.038092400879    
-0.11982141435    -0.10070315748    -0.099340446293    -0.18032833934    -0.019804503769    
-0.094810500741    0.040998559445    -0.024417564273    0.015170675702    -0.11430221051    
0.13770031929    0.0036510885693    0.19300557673    0.19189736247    
0.062263252802    0.035415314138    0.052376288664    -0.0083935976601    0.14406319042    
-0.052787981927    -0.070420141154    -0.079550209737    -0.1695197161    0.1096214503    
0.12253791368    0.17826959491    0.10320707411    0.15262745436    0.10461747366    
-0.13304965671    -0.12737318873    -0.11895859987    -0.0076216747984    -0.18677288294    
-0.010382949375    -0.10807587951    0.066371306777    -0.006048885585    0.051580730826    
0.15089358389    -0.097555346787    -0.037219654769    0.05316022411    0.10001272708    
0.058760710061    0.095006659627    0.1197059527    0.14584951103    0.19160328805    
0.046330191195    0.19606357813    0.0026446154807    0.025489391759    -0.082342945039    
0.02280225046    -0.026395486668    -0.080107726157    -0.09261482209    -0.15168713033    
-0.16312615573    -0.040290866047    -0.15404245257    0.0047129187733    -0.0029765672516    
-0.031002148986    0.1128847003    0.1805921495    0.21694687009    0.1021591574    
0.12662006915    0.062003210187    0.18951381743    0.12777155638    0.076066583395    
0.16369615495    0.12276419252    -0.0587884821    0.052678707987    0.16222573817    
0.26129713655    -0.095085553825    0.097736671567    0.043773494661    0.024648226798    
-0.085883244872    -0.07660485059    -0.021924061701    0.14785385132    0.16411808133    
0.089447163045    0.026198217645    -0.021241758019    0.097218066454    0.20794272423    
0.13191781938    -0.12770707905    -0.02158492431    0.11158268154    0.19043906033    
-0.073257319629    -0.10164608061    0.063307881355    -0.10078287125    
0.5    0.41492205858    0.5    0.5    0.5    
0.42031297088    0.5    0.5    0.5    0.40513393283    
0.5    0.41238203645    0.41588512063    0.5    0.5    
0.5    0.39857259393    0.40546107292    0.4051745832    0.40738597512    
0.36995971203    0.31131532788    0.41912767291    0.5    0.30914595723    
0.31712794304    0.28269585967    0.33446398377    0.33370113373    0.23530095816    
0.29367023706    0.19563245773    0.13685636222    0.065897509456    0.163947016    
0.037774868309    0.30612745881    0.26697871089    -0.087655283511    -0.057664580643    
-0.050664272159    -0.024072546512    -0.10398387909    0.041371244937    -0.031522978097    
-0.052825815976    0.059226922691    0.034136377275    0.17605555058    0.052815146744    
0.29424887896    0.14954343438    0.1915037483    0.086114391685    -0.01128491573    
0.052222408354    0.08092341572    0.2424338907    0.26289540529    0.17086197436    
0.35594251752    0.35016521811    -0.029195344076    0.020682629198    0.25277805328    
0.18298453093    0.11393018812    -0.07657096535    0.094147279859    0.21341387928    
0.20955140889    0.2294396162    -0.0038021896034    0.061055991799    0.12354470044    
0.099740616977    -0.05257004872    0.052918769419    0.015550041571    0.023828176782    
0.021488841623    0.11486391723    0.15856590867    0.12526865304    0.085725553334    
0.12980239093    0.19533498585    0.10828005522    0.32066789269    
391.643925787    393.658249369    391.285010133    385.858080301    382.599653509    
384.96390858    395.698974052    392.15493507    397.0569151    385.922351516    
387.415288826    389.736168837    397.227970246    394.411425665    395.154909827    
383.6973069    388.003076069    373.514747818    379.121317996    364.1178772    
377.109792962    383.649928644    391.481863936    365.896820478    394.191497104    
396.964173027    388.909782867    393.624556245    384.196453789    390.71923549    
392.693333295    378.380441838    373.882739848    387.195402563    387.914394446    
383.061367774    366.971221238    379.790088717    379.094574624    379.555708745    
381.907280876    382.801174989    387.223933908    390.359906792    393.211008155    
359.184058457    369.207808371    365.830951338    361.915855798    379.274284799    
378.598831713    370.619608909    367.482028456    372.406026993    364.488951457    
361.676364479    359.944651503    341.59303068    343.817361171    351.16840923    
334.567781044    319.913757485    341.611987563    319.833293075    308.594328514    
304.238223473    311.743592605    356.487246433    361.212604491    362.338514836    
359.845181049    355.121659582    354.936850219    329.912745713    349.082134106    
370.553609584    374.960597    357.569326086    352.00818444    348.115765357    
329.334380532    330.382461912    311.138836523    284.789792991    274.680543845    
275.453258894    258.305813137    285.959764117    289.002535649    312.173307485    
303.131797186    328.377894415    334.134419454    334.864995576    301.868088197    
311.519155426    316.905416776    322.859448999    304.125881943    297.671961671    
304.385798772    299.214920549    315.649901484    326.324793286    331.295197311    
352.06154136    325.64689327    337.941884348    344.269137976    337.745810063    
346.366290084    327.786889946    306.346855651    337.230687404    354.61192267    
344.700272228    336.122368556    343.175249863    338.689714091    328.244424914    
331.600599564    355.518040838    315.488101213    349.584835503    359.716960726    
293.948566172    304.981767774    314.877138172    317.559067606    332.303464936    
337.543179929    327.316757066    340.553758975    342.504879119    334.614315762    
308.761776258    311.320750697    342.054109719    361.218325427    350.518129251    
356.322650745    363.527028862    359.56740259    318.714992373    327.987962108    
320.50836676    327.406894284    338.803719305    324.91632997    320.68695193    
322.320350856    334.372786559    341.158052438    353.280300686    361.680103254    
369.911140078    367.964563587    361.925112916    361.96596851    373.752428302    
339.720656427    330.712785884    349.570610071    349.250656994    356.0580697    
351.883877801    337.202548513    354.177923704    347.625784476    347.498012573    
333.838450665    355.727539672    356.84743612    362.022144603    363.566596026    
324.541580464    328.879474251    324.613338005    287.272149086    305.245175674    
312.474412505    300.595737611    334.472426069    305.076546691    324.139799329    
347.277359263    339.668213713    326.149177599    332.821476147    322.38781931    
313.453681516    309.401225497    277.578393856    264.661018017    276.570556299    
292.981049665    299.498660053    311.743145199    289.196832028    292.866308326    
306.743056717    299.697216547    267.78633265    356.157331605    333.520411536    
329.128378356    326.819443198    355.24167206    360.701618358    355.074348052    
354.17713779    357.285008132    349.295039761    318.84046398    310.912154623    
302.190112704    301.921000153    311.635553287    311.784928733    283.674084945    
310.989091388    276.045682358    358.49011956    358.600724647    360.586919482    
346.833728612    361.402642065    392.073893566    377.523022067    335.334112198    
307.944468512    317.457339904    326.400016851    
0.0735965979934    0.0359810858373    0.00721660783215    0.0185558625623    0.0883384350376    
0.0851895755236    -0.0195499931782    -0.0183970224848    -0.0533641680423    -0.00887501345177    
0.00671743631307    -0.0366960119467    -0.0938652429706    -0.108501235987    -0.119540119583    
0.0898115005509    0.110308058961    0.116996167848    0.047740707035    0.111009198322    
0.113083858656    0.0457695375166    0.112118109695    0.107925824337    0.102397263178    
-0.12820328579    -0.0664449909531    -0.133147260759    -0.0721238779263    -0.0625558881043    
-0.108276784495    -0.0149745880178    0.0462554666888    -0.118376862192    -0.11625184904    
-0.0576818667987    0.0456611387881    0.0558793267968    -0.0152592103232    -0.0511603088579    
-0.082012844514    -0.0827696156169    0.0282976414784    0.0083174352614    0.0607994729187    
0.0787400362873    0.0109051075503    0.0254929996609    0.0018995034662    -0.0940151205929    
-0.0696789118741    -0.0823778927914    -0.0358188410106    0.00961555588876    0.0787959297967    
0.00850304677365    0.0649892407546    0.106512281353    0.0907959860566    0.045886787002    
0.101318165216    0.133009241596    0.0634493568883    0.106985819102    0.138281704745    
0.1365060827    0.143285432342    0.00940895194813    -0.026435446108    -0.118966973445    
-0.107677494731    -0.0839694084287    -0.0757920927894    0.0765779900889    0.0338106759052    
-0.00662382747585    -0.0445834292861    0.00111837138572    0.0433824283271    0.0237823044556    
0.0677135509384    0.0597890852521    0.125313507088    0.155874296552    0.176591040041    
0.168801601488    0.211634925385    0.16812224119    0.150030395665    0.105525024042    
0.146946664027    0.0534663132138    0.0320840677532    0.0151325583421    0.108794983404    
0.0774856998465    0.0625517554739    0.0431592322209    0.159349950054    0.146572415855    
0.126346345831    0.165966370107    0.158159145219    0.14212711362    0.163312661861    
0.138397583322    0.135809104206    0.100755192036    0.103195077551    0.0756618452953    
0.0819869585571    0.152015101674    0.151709976333    0.131318323306    0.1075740867    
-0.039781880512    -0.00693366411401    -0.0308034689898    -0.0173610160895    0.0189066492534    
0.0101637907627    -0.0860381142717    0.148838679047    -0.0545267194699    -0.103613277054    
0.103439464857    0.0759811483478    0.0612896059312    0.0494919289121    0.0335596185106    
0.0156812930717    0.0222272306314    0.00386345539576    -0.00391285185266    0.00703789912977    
0.0833009877027    0.0855236218552    0.051430287    -0.0318025721697    0.0347233036858    
-0.0218825366714    -0.0487082952839    -0.041665213774    0.0868572295433    0.0509077969052    
0.0765458613444    0.0595305580496    0.0132436418672    0.0593776546535    0.0915166030317    
0.0854185394328    0.0583665232098    0.020411457923    -0.0216944829746    -0.0464847955537    
-0.0760183579991    -0.0645747672443    -0.0619734710572    -0.0577032801267    -0.0797481061141    
-0.0137269218663    0.0078130693369    -0.0365521864651    -0.0402926033968    -0.0779946172606    
-0.0513857713247    -0.000138336836625    -0.0558452794224    -0.0396533039947    -0.0263322598756    
0.0204561008758    -0.0839318595379    -0.0854146561366    -0.0918860898492    -0.120505920677    
0.03374998722    0.0362312964931    0.0572584322154    0.146699149149    0.117400448139    
0.0933207660352    0.111603820286    -0.000354598531378    0.0780729517234    0.0397843759834    
-0.0437292253976    -0.0106932141655    0.0413598026686    0.0232586080595    0.0545978689205    
0.0756523477151    0.0914954483284    0.157255300753    0.179469400641    0.157517322466    
0.127146724395    0.109940813676    0.07599604753    0.14320585552    0.119437893665    
0.10191838906    0.112152114019    0.173717214873    -0.0713774390216    0.0306568767256    
0.0471037350626    0.0620977886624    -0.0241676607657    -0.0867619676597    -0.0647201689915    
-0.0425854474774    -0.0448331649737    -0.0319954616585    0.0799395121412    0.109653866202    
0.134330955354    0.109201700594    0.128387951668    0.124266281822    0.151834662563    
0.0967075264174    0.170244314327    -0.075759669624    -0.0831958688077    -0.0833082440167    
-0.0270856535239    -0.103522502715    -0.0252687848662    -0.0611401451306    0.0311194784579    
0.113283362249    0.0891983084248    0.0943742554729    
1     2     3     5     
3     2     1     4     
4     3     2     6     
4     2     1     21     
5     1     2     10     
5     2     3     13     
3     6     4     7     
7     3     6     19     
7     6     4     8     
4     6     2     21     
3     2     6     19     
8     6     4     21     
7     6     8     9     
9     6     8     17     
7     6     9     20     
1     10     11     23     
11     10     1     5     
5     10     2     12     
1     2     10     21     
12     10     2     62     
5     12     2     13     
3     13     2     19     
5     13     3     14     
2     13     12     62     
3     14     13     15     
9     17     8     16     
8     17     6     21     
9     6     17     20     
18     19     6     22     
6     19     18     7     
7     18     6     20     
6     19     2     28     
2     19     13     29     
6     17     20     22     
6     20     18     22     
6     21     17     28     
10     21     2     25     
1     21     10     23     
2     21     6     28     
6     22     19     28     
18     19     22     89     
6     17     22     28     
21     23     1     24     
24     1     21     4     
24     23     1     11     
2     10     25     62     
2     25     21     28     
25     28     2     29     
21     28     25     38     
22     28     17     27     
27     28     17     21     
22     28     27     71     
21     27     28     38     
2     19     29     28     
2     29     13     62     
28     29     25     51     
2     25     29     62     
26     29     30     62     
30     29     26     31     
31     30     29     51     
31     26     30     32     
30     32     26     58     
31     32     30     49     
33     34     32     88     
32     34     33     35     
35     32     34     52     
35     33     32     65     
25     38     28     70     
28     38     27     70     
47     45     48     82     
48     45     47     40     
40     47     48     63     
40     45     47     73     
30     49     32     52     
31     49     30     51     
29     51     28     19     
19     51     28     22     
25     28     51     70     
25     51     29     30     
30     51     49     70     
32     52     49     88     
30     49     52     70     
30     52     32     58     
53     52     54     84     
54     52     53     35     
35     54     52     74     
35     53     54     66     
35     52     53     58     
35     52     34     74     
32     34     52     88     
32     52     35     58     
50     55     36     88     
36     55     50     42     
42     55     50     73     
57     56     55     74     
55     56     57     41     
57     41     56     69     
57     55     41     73     
32     58     35     65     
30     52     58     53     
53     30     52     84     
53     58     30     37     
58     26     30     37     
30     37     26     62     
26     62     37     12     
12     26     62     13     
30     37     62     59     
59     62     30     25     
25     59     62     10     
25     30     59     70     
25     62     30     29     
37     62     59     61     
30     37     59     53     
59     62     10     61     
29     62     26     13     
47     63     40     41     
41     47     63     64     
41     40     47     73     
64     47     63     78     
64     41     47     69     
64     63     41     77     
48     63     47     67     
32     58     65     26     
47     67     63     78     
48     67     47     82     
64     68     56     81     
56     68     64     41     
41     64     56     69     
41     68     64     77     
49     69     57     70     
57     69     49     47     
47     57     69     41     
47     49     57     50     
47     69     49     83     
64     69     47     78     
56     69     64     84     
57     69     56     84     
38     70     25     59     
51     70     28     71     
25     70     51     30     
49     70     51     71     
27     28     70     71     
27     70     38     87     
30     70     52     84     
49     52     70     57     
57     52     70     84     
57     49     52     88     
69     70     49     83     
57     70     69     84     
59     70     30     84     
60     70     59     84     
59     70     60     38     
38     70     60     83     
49     70     71     83     
49     71     51     72     
51     71     22     72     
22     71     51     28     
27     71     70     87     
72     49     71     86     
72     22     51     89     
41     40     73     39     
41     73     47     57     
50     73     44     42     
44     73     50     47     
47     44     73     45     
47     50     44     86     
47     73     50     57     
42     73     44     43     
39     73     43     40     
43     73     39     42     
42     73     39     55     
40     73     43     45     
44     43     73     45     
44     42     43     46     
44     43     45     46     
39     73     41     55     
57     55     73     50     
50     57     55     88     
52     74     54     84     
34     74     52     88     
57     74     55     88     
56     74     57     84     
63     77     64     78     
64     77     68     81     
64     78     77     79     
67     78     47     83     
47     78     69     83     
64     69     78     76     
69     78     76     83     
64     76     78     79     
64     69     76     84     
64     76     79     81     
56     80     75     81     
75     80     56     54     
54     56     75     84     
79     81     76     85     
64     76     81     75     
64     81     79     77     
76     81     75     85     
64     75     81     56     
64     76     75     84     
56     64     75     84     
75     81     80     85     
47     82     67     83     
60     83     70     69     
69     60     83     76     
69     70     60     84     
70     83     38     87     
67     83     82     87     
47     82     83     86     
49     83     71     86     
70     71     83     87     
49     47     83     86     
76     69     60     84     
75     84     76     60     
75     84     60     53     
52     84     57     74     
30     59     84     53     
60     84     59     53     
56     74     84     54     
52     74     57     88     
53     84     54     75     
82     83     86     71     
82     86     47     44     
82     83     71     87     
47     86     49     50     
44     47     82     45     
4     21     24     8     
19     51     22     89     
57     50     49     88     
34     74     88     55     
55     88     34     36     
34     36     88     33     

