Title = " tecplot file for 2D Cavity problem " 
variables = "x", "y", "z", "velX", "cellCentroidY" 
Zone T = "nmesh0" N = 85 E = 235 DATAPACKING = BLOCK, VARLOCATION = ([4-5]=CELLCENTERED), ZONETYPE=FETETRAHEDRON
0.5    0.41276644951    0.5    0.5    0.5    
0.41575962317    0.5    0.5    0.5    0.41643862762    
0.43227991151    0.5    0.5    0.4122946649    0.5    
0.5    0.41981491446    0.5    0.5    0.40504917502    
0.5    0.33957649135    0.41874924302    0.5    0.32618201123    
0.41569638252    0.41578080408    0.5    0.5    0.41768452525    
0.5    0.32678941768    0.41065472364    0.5    0.32383922021    
0.5    0.5    0.40414276719    0.5    0.40883976221    
0.5    0.23988850923    0.24030808209    0.21497009695    0.30577623844    
0.21983735443    0.21220782399    0.26118835807    0.4201413095    0.40772935748    
0.39354494214    0.41278079152    0.40572524071    0.40442427993    0.30595946312    
0.29400601983    0.17720426619    0.33006593585    0.39897340536    0.5    
0.32872989774    0.4085174799    0.42426067591    0.18004000187    0.23749235272    
0.33005258441    0.24845309556    0.27065211535    0.32073333859    0.32815802097    
0.32283324003    0.28731971979    0.32975903153    0.23640879989    0.33997377753    
0.13790485263    0.19366455078    0.20252458751    0.32498046756    0.26247379184    
0.2703794539    0.24469183385    0.25666350126    0.33016222715    0.43577221036    

0.23878142205    0.23802795747    0.3    0.2    0.13704872465    
0.13647533199    0.1    -0.033454306713    0.0    -0.034165135222    
0.05080410852    0.051328268973    -0.1    -0.13484758004    -0.13423285275    
-0.004451597045    0.024051796645    -0.083182727769    0.0074893949164    0.02353441529    
0.052729285155    0.051370315306    -0.051343418658    -0.066395926384    0.28217272988    
0.28777328134    0.33947748232    0.28424562361    -0.065782109139    -0.077823087573    
-0.17245734639    -0.066835816451    0.18327124417    0.17398359979    0.17219533633    
0.056480263476    0.10954857444    0.10724130273    -0.0040942735631    -0.061955809593    
-0.11599105206    0.10542630627    -0.0063659954075    0.047655455768    0.33583059907    
0.22402612177    0.29128858447    0.16721591353    0.10479418933    0.037101287395    
0.098883368075    -0.14694330096    -0.17034709454    -0.080692149699    -0.0047878199257    
-0.11779171228    0.20481482148    0.23920804262    0.21166716516    0.229218125    
0.11139494926    0.013350881636    0.015413438901    0.12659868598    -0.054580211639    
0.16664245725    -0.050696302205    -0.032839149237    0.03692343086    0.025269117206    
-0.10706669092    0.051976907998    -0.061531320214    0.22946728766    0.29424312711    
0.15976892412    0.055856585503    0.11355000734    -0.0011573025258    -0.12153756618    
0.16567063332    0.041254688054    0.12977704406    0.095714308321    0.15739028156    

-0.41433816876    -0.5    -0.5    -0.5    -0.41609585065    
-0.5    -0.5    -0.41621550818    -0.5    -0.5    
-0.5    -0.43188041874    -0.5    -0.5    -0.41348763454    
-0.054975019742    -0.012617296539    -0.019241548604    0.046792553739    -0.39541178942    
-0.33813941609    -0.5    -0.069024145603    -0.1328558622    -0.5    
-0.38759097457    -0.5    -0.33086023526    -0.32669339602    -0.38546550274    
-0.32683066421    -0.5    -0.38553187251    -0.32616159469    -0.5    
-0.13308059917    -0.23780244737    -0.17599338293    -0.23363482805    -0.26598888636    
-0.23763839964    -0.5    -0.5    -0.40872132778    -0.40458709002    
-0.5    -0.41133615375    -0.40178945661    -0.41993972659    -0.10843267292    
-0.29801934958    -0.3047901094    -0.21453258395    -0.1657396853    -0.4174105227    
-0.41329279542    -0.41892081499    -0.40299513936    -0.27692452073    -0.22976599836    
-0.43074804544    -0.20341610909    -0.30833655596    -0.34880107641    -0.41262426972    
-0.33120939136    -0.2742189765    -0.10657566041    -0.15957440436    -0.050448991358    
-0.22623543441    -0.3161945343    -0.33554247022    -0.32144889235    -0.33216997981    
-0.25212776661    -0.27735134959    -0.17525468767    -0.24673835933    -0.32863172889    
-0.24118041992    -0.20579455793    -0.31545513868    -0.23053814471    -0.23034669459    

391.043771086    397.075781926    393.545458483    396.348647949    398.8918756    
397.956325019    399.579232481    399.115960021    397.768199621    399.270358625    
397.869034119    399.661476808    398.492459444    398.719171835    391.621982234    
395.276937502    395.967083605    397.423127772    395.882090939    397.112448233    
397.079655825    395.621058091    395.460410241    396.806056817    396.231157918    
391.891058042    387.757689015    376.706973714    381.384584804    388.852319862    
387.058401976    396.276672825    398.982047391    399.295469312    398.75611678    
395.085699552    394.958136613    399.03713367    398.932991965    397.956199667    
397.286173245    395.975342153    384.167447786    391.121552269    395.868123743    
380.632533559    371.002576032    396.783265666    393.37026952    377.808596069    
389.205627955    392.08359783    395.531153143    385.24061834    394.954523949    
395.460539342    397.165337394    396.259760512    394.572426689    381.576618463    
388.309585754    385.44813086    379.417756641    390.063665845    397.382423253    
398.669741026    394.668379524    392.127444847    398.769770249    397.964638512    
396.294142184    391.544683642    386.623824777    390.669047251    377.163637364    
391.390670514    394.808131802    388.31880997    386.815164479    393.129729111    
391.904368406    378.494725468    381.320498871    384.369816407    390.437916627    
389.789862705    394.115868343    393.311655768    398.239543768    394.921780761    
391.475017363    394.253211983    388.317044366    376.907770491    393.121226194    
396.610677825    391.024712303    388.347375954    395.200880264    397.910650662    
397.801234886    395.675748053    391.110993135    391.208455783    389.265809862    
385.561210322    394.158056823    394.757210474    392.157368653    390.517420697    
390.481028594    338.28374952    362.43127155    363.245925709    362.739346809    
375.054238697    378.348778049    370.621451521    354.670428383    358.944450755    
320.307446153    386.461513423    339.634623079    388.828975118    376.969915318    
379.764552686    355.278975184    338.276377866    366.994428332    379.819840339    
385.547421206    354.608506818    383.669108659    380.18669921    396.722715232    
395.725378973    364.002553478    368.689522535    378.901692632    367.959400463    
383.071886466    383.115653413    390.781897922    377.261889759    395.501139496    
394.671141055    383.025293007    371.139524414    388.468946026    391.824470121    
382.14351217    373.293959173    386.801191368    379.766137402    382.143633539    
384.112963843    398.261939879    396.435196058    398.050074141    379.482213442    
390.258545657    389.909512904    340.561477975    360.012614548    380.352258676    
389.014577277    342.834321504    361.753956938    374.187707196    351.088657518    
357.50199545    350.764825954    367.131766625    376.157124213    374.50764186    
364.73107193    373.3447825    388.069210451    382.856943234    384.050538971    
377.84409731    384.820097884    371.298966886    362.626343993    366.525350952    
369.80750552    375.743668164    382.499544311    379.286346839    367.756779956    
376.760912502    382.588556931    381.428416242    384.48666893    387.465457443    
387.87373078    383.715351267    331.086261402    343.233647387    315.905149879    
341.530572448    361.615137676    361.345621994    376.023556828    372.548534833    
380.045471124    365.746884642    373.695057181    369.937961775    365.184123027    
382.705329883    368.823647346    374.11208417    330.17070828    326.370869369    
336.412607135    337.011931995    341.307627763    352.200707776    360.592090828    
362.796635996    358.683691473    320.954032225    331.164134543    344.510474964    
325.175618297    334.702864374    357.189532397    352.071414333    344.026013714    
355.949033261    342.008619171    363.058932341    368.21959369    394.110253192    

0.266404513568    0.244897955561    0.21459054991    0.164530164325    0.144212502783    
0.119594969005    -0.0429172094938    -0.00494111626456    0.00134949115089    0.0172423548117    
0.0225361431611    0.05044010346    0.0770948885002    -0.0617333796335    -0.0289364740412    
-0.0141304222985    0.0136405905374    0.0231984660943    0.0579500062821    0.0570227116912    
0.022502171309    0.0572004159328    0.00854277738129    -0.0301362377361    -0.052031980783    
-0.020690012127    0.00168371310778    0.261970092157    0.287241585475    0.290733780406    
0.236625807077    -0.0391738098689    -0.0783658441354    -0.0860199154293    -0.11235070829    
-0.0185886300826    -0.0242323540782    -0.111288404344    -0.0862198120362    -0.0790284750197    
-0.115280321051    -0.0458959752952    0.247769754074    0.219644031633    0.183721182589    
0.214506272896    0.241141137088    0.189425550169    0.15057927179    0.236994792135    
0.15150388852    0.182976820223    0.189004665372    0.207854116528    0.141825954081    
-0.0293165858813    -0.0615788368797    -0.0978477579236    -0.0654822588435    0.17379424611    
0.16753759838    0.13912737589    0.20120895301    0.135090580722    0.0855919796451    
0.0980497710748    0.100549852914    0.0714665284756    0.0983285428994    0.0861812273753    
0.11579886596    0.108242161523    0.139032385983    0.0705979001014    0.00851202353653    
0.00803324162418    0.00491532108261    -0.0395464978815    0.134923144716    0.108751971755    
0.0709075800091    0.166269720162    0.124120445987    0.0848648094465    0.0490234705281    
-0.121291720652    -0.1234721548    -0.107436394299    -0.124651308315    -0.0878546016575    
-0.0869101154155    -0.0479136885311    -0.0239305051722    -0.0317506768988    -0.0347236845416    
-0.0664922988807    -0.0339898237555    -0.105208158274    -0.0336225751662    -0.00642230610307    
-0.0127897868271    0.0370903142885    0.0361128524335    0.06549104101    -0.00359970395721    
0.0651617487586    -0.0611857643328    -0.0669692492214    -0.0656214002158    -0.0300253420847    
0.0450937337136    0.223752530961    0.222310226296    0.231221068368    0.135322999658    
0.129823298104    0.106932124006    0.259176402344    0.286497670925    0.287151705882    
0.27290601019    0.229138208978    0.232989526109    0.232121555582    0.173788651558    
0.176939447235    0.250474081365    0.289514025771    0.164933392383    0.159731679081    
0.225123469381    0.24308034115    0.193429302358    0.0716040424451    0.117564487415    
0.109866993868    0.171200250333    0.174284493209    0.0527551320277    0.111207722389    
0.0466867329484    -0.033261265979    -0.00913037766402    0.00048856100985    -0.000492027277973    
0.0449571085324    0.053686473555    0.0488169176786    0.0713673794725    0.0353293146678    
0.0822749283708    0.0778825724203    0.0601402772442    0.116316360612    0.0477123776435    
-0.00814207175071    -0.00131952030062    0.0440811755619    -0.00806791655129    0.0319377322149    
-0.0465750606724    -0.0258006817784    0.182256996905    0.116635529445    0.0115477636089    
-0.0597555368547    0.201384819432    0.143125744806    0.138851750538    0.220548439829    
0.14406068702    0.215663018283    0.0628449150449    -0.00934709200428    -0.0129597048533    
0.0164712135482    -0.00727067275227    -0.0949541119396    -0.0621936460432    0.00743626566805    
0.0410707659033    0.00317823032847    0.105818854285    0.103357532196    0.113853949703    
0.0854448778173    -0.00259486961666    -0.0165960092956    -0.0277859407721    0.0251193828528    
-0.0153673904745    -0.0708022543517    0.00116717891435    -0.026831213092    -0.0879735126153    
-0.110588702142    -0.0581583241311    0.23199902679    0.174408897151    0.27351930045    
0.164542702701    0.0233590457253    0.070582058214    -0.0537665802668    -0.0477318890074    
-0.0557248905613    -0.0121676746442    0.0514350489269    0.0611216621911    0.0107561612847    
-0.0854618585916    0.0364480270557    -0.0229894797982    0.127802081603    0.123701921661    
0.095960592215    0.104430798152    0.0978597120114    0.0696885277896    0.0474097576688    
0.00965976558396    0.0432786723804    0.171863646235    0.17456039225    0.138851353529    
0.163285575293    0.118152746561    0.087874001748    0.0795830071041    0.10601150092    
0.110731058994    0.0736245496817    0.140500208755    0.114559910721    0.168578745512    

1     2     3     26     
3     2     1     4     
1     4     2     33     
5     6     4     33     
4     6     5     7     
5     7     6     49     
8     9     10     13     
10     9     8     11     
11     8     10     20     
11     9     8     12     
11     12     8     20     
11     9     12     7     
12     11     7     49     
10     8     13     30     
16     17     18     23     
18     17     16     19     
8     20     21     63     
21     20     8     12     
12     21     20     49     
11     12     20     49     
11     20     10     22     
22     11     20     49     
22     20     10     55     
10     20     8     30     
16     23     18     24     
24     16     23     50     
17     23     16     50     
25     26     2     58     
2     26     25     27     
27     2     26     3     
1     2     26     33     
29     30     8     63     
8     30     29     15     
15     8     30     13     
15     30     29     31     
8     30     20     63     
10     20     30     55     
15     13     30     14     
10     30     13     14     
10     30     14     32     
31     30     29     52     
10     30     32     55     
28     33     1     26     
1     33     28     34     
34     1     33     5     
34     33     28     59     
28     33     26     59     
5     1     33     4     
5     33     34     49     
26     33     2     58     
35     33     6     61     
6     33     35     2     
2     6     33     4     
2     33     35     58     
5     6     33     49     
39     40     29     63     
29     40     39     41     
41     29     40     52     
41     40     39     54     
46     48     42     57     
42     48     46     35     
35     42     48     61     
35     48     46     58     
33     49     6     61     
11     49     22     6     
6     11     49     7     
6     49     22     61     
22     49     20     61     
12     49     7     5     
12     49     5     21     
5     49     34     21     
21     49     34     51     
34     49     33     51     
20     49     21     51     
23     50     17     70     
24     36     50     62     
50     36     24     16     
24     50     23     54     
37     51     34     85     
34     51     37     21     
21     51     37     63     
33     34     51     59     
33     51     49     61     
20     49     51     61     
20     51     21     63     
53     52     40     71     
40     52     53     41     
41     53     40     54     
29     52     41     31     
29     40     52     30     
30     40     52     73     
30     29     40     63     
50     54     24     62     
23     54     50     68     
24     54     39     62     
39     54     24     41     
39     54     40     62     
40     54     53     71     
43     55     32     65     
32     55     43     22     
22     32     55     10     
22     55     43     42     
42     55     43     44     
22     55     42     61     
44     55     43     65     
42     55     44     61     
32     55     56     65     
56     55     32     30     
30     56     55     73     
20     30     55     73     
20     55     22     61     
48     57     47     74     
47     57     48     46     
46     48     47     58     
44     57     48     64     
48     57     44     42     
42     44     48     61     
47     58     25     46     
25     58     47     45     
45     25     58     26     
45     58     47     74     
46     58     25     35     
47     58     48     74     
35     58     25     2     
48     58     35     61     
35     58     33     61     
33     58     26     75     
26     58     45     75     
33     59     51     66     
34     51     59     85     
34     59     28     60     
26     59     33     75     
34     59     60     85     
20     61     51     72     
6     35     61     22     
35     61     22     42     
58     61     48     66     
33     61     58     66     
44     61     55     72     
48     61     44     83     
20     55     61     72     
40     62     54     79     
39     62     40     63     
54     62     50     69     
24     62     39     36     
36     62     39     37     
50     62     36     38     
38     50     62     69     
38     62     36     37     
39     37     62     63     
37     38     62     51     
38     62     51     84     
37     51     62     63     
37     38     51     85     
20     51     63     72     
40     63     62     79     
39     63     29     21     
21     39     63     37     
21     63     29     8     
51     62     63     79     
30     63     40     73     
20     63     30     73     
48     64     57     74     
44     64     48     83     
44     55     65     72     
56     65     55     73     
48     58     66     74     
48     66     61     83     
33     61     66     51     
33     66     58     75     
51     66     59     84     
33     59     66     75     
38     69     62     84     
62     69     54     79     
50     54     69     68     
69     50     68     70     
68     70     50     23     
40     71     52     73     
54     71     40     79     
20     72     63     73     
51     63     72     79     
55     72     20     73     
51     72     61     66     
51     72     66     84     
61     66     72     83     
61     72     44     83     
44     72     65     67     
55     65     72     73     
67     72     65     73     
44     72     67     77     
72     73     67     79     
65     67     73     80     
63     73     72     79     
40     73     63     79     
56     65     73     80     
52     73     71     80     
40     71     73     79     
66     74     58     75     
48     74     66     83     
58     74     45     75     
48     64     74     83     
67     77     72     82     
44     72     77     83     
68     79     71     54     
71     79     68     67     
67     71     79     73     
67     79     68     82     
62     79     51     84     
51     79     72     84     
72     79     67     82     
67     71     73     80     
69     79     62     84     
54     79     69     68     
77     81     76     83     
76     81     77     78     
78     81     77     82     
81     82     78     84     
77     82     81     83     
72     82     77     83     
79     82     72     84     
68     82     79     69     
69     82     79     84     
81     83     74     76     
74     83     81     66     
66     83     81     84     
76     83     74     64     
64     76     83     77     
77     83     64     44     
82     83     72     84     
81     83     82     84     
66     72     83     84     
78     84     82     69     
59     51     84     85     
38     84     51     85     
34     37     85     60     

