Title = " tecplot file for 2D Cavity problem " 
variables = "x", "y", "z", "velX", "cellCentroidY" 
Zone T = "nmesh0" N = 82 E = 233 DATAPACKING = BLOCK, VARLOCATION = ([4-5]=CELLCENTERED), ZONETYPE=FETETRAHEDRON
-0.0091472639982    -0.0090313917026    0.04200366788    -0.0092070130631    -0.068697194278    
0.050223418972    0.15019595875    0.17428602278    0.23516532036    0.13749680461    
0.10141577572    0.10382794224    -0.0081998756346    0.099178366363    0.11803464131    
0.29779165983    0.32309466119    0.33511499039    0.19872111082    0.22335318204    
0.19613178074    0.22848429558    0.073977522552    0.13125571609    0.024327076972    
0.10164710879    -0.029528370127    -0.11857869927    0.2825846076    0.045684359968    
0.28339627385    0.28886640072    0.20131455362    0.031621340662    0.036933004856    
0.11557609588    0.11566399038    0.15766808391    0.21098193526    0.23493692279    
-0.013419246301    0.3377006948    0.24479758739    0.18614409864    0.25532969832    
0.10883488506    0.19725997746    0.15706507862    0.24962322414    0.10168384761    
0.16960006952    0.079051792622    0.092493660748    0.11585833877    0.21100731194    
0.14475268126    0.15591920912    0.23338773847    0.36127585173    0.23631863296    
0.27395620942    0.2626427114    -0.046197623014    -0.019574807957    0.10845112056    
0.18599182367    0.094177126884    -0.066529624164    -0.071007244289    0.015071149915    
0.19546446204    0.02622140944    0.093645699322    -0.026364712045    0.13408590853    
-0.073288328946    0.040998559445    0.13770031929    0.0036510885693    0.18562467396    
0.0041586537845    -0.11848574132    
-0.5    -0.41674688458    -0.5    -0.40289950371    -0.5    
-0.5    -0.5    -0.40987175703    -0.5    -0.5    
-0.40612122416    -0.5    -0.5    -0.40350434184    -0.5    
-0.4003213346    -0.5    -0.5    -0.40320238471    -0.5    
-0.40977177024    -0.5    -0.42497992516    -0.40172451735    -0.41830760241    
-0.40012854338    -0.41277977824    -0.5    -0.37153184414    -0.31761169434    
-0.39243045449    -0.3071628511    -0.3179461658    -0.28916287422    -0.32322400808    
-0.34224000573    -0.31831282377    -0.27471598983    -0.26491120458    -0.4055737555    
-0.23916488886    -0.30777356029    -0.27884525061    -0.16256788373    -0.22811315954    
-0.31939277053    -0.3455041945    -0.28313827515    -0.29175436497    -0.18898910284    
-0.23590271175    -0.27347123623    -0.20451775193    -0.15168713033    -0.16312615573    
-0.09261482209    -0.22678218782    -0.083488866687    -0.34043610096    -0.39380568266    
-0.32652196288    -0.34262031317    -0.24319313467    -0.15404245257    -0.204676494    
-0.16343681514    -0.10807587951    -0.0587884821    -0.095085553825    -0.20733688772    
-0.07660485059    -0.17033040524    -0.085883244872    -0.097555346787    -0.15312837064    
-0.18226191401    -0.12770707905    -0.073257319629    -0.10164608061    -0.34643083811    
-0.19605831802    -0.16018170118    
0.084021144665    0.046871855855    0.028995898372    0.11928126216    0.13650920358    
0.13731343842    0.1568161242    0.11003278196    0.11235836251    0.060923871281    
0.17772006989    0.23903066386    0.23586175998    0.011424860917    -0.055645185549    
0.11398679018    0.17554486258    0.054057149291    0.20914195478    0.23122514052    
0.01528623607    -0.0010336220888    0.094609223306    -0.087718769908    -0.037241317332    
0.28946328163    0.20995981991    0.23831385826    0.024736555293    0.065575197339    
0.19843269885    0.20843856037    0.066469952464    -0.062301639467    0.17034308612    
0.11625244468    0.23589520156    0.15782602131    0.23166464269    0.14758144319    
0.087443321943    0.12006647885    0.13507446647    0.12871466577    0.056932210922    
-0.082985728979    -0.070507861674    -0.022462427616    -0.011472829618    0.2219312489    
0.078827299178    0.0038494174369    0.047855906188    -0.031522978097    -0.052825815976    
0.041371244937    -0.10202209651    0.036128032953    0.18057915568    0.075998753309    
0.084541067481    0.15512171388    -0.011554532684    0.034136377275    0.1350004971    
0.21694633365    0.31131532788    -0.029195344076    0.11393018812    0.17704497278    
0.2294396162    -0.044534139335    0.20955140889    0.28269585967    0.17283803225    
0.11546137929    0.11486391723    0.12980239093    0.19533498585    0.15245999396    
0.26334768534    0.052078723907    
397.854125974    398.493814562    398.650732364    398.542519105    398.309915278    
398.967763305    396.440766785    398.822054064    397.6646793    398.615096126    
397.469704501    396.019908282    398.692784944    397.705854087    395.915408044    
395.887538664    397.372133961    396.416954668    398.991089003    397.313130985    
395.707288576    398.411799178    396.933972707    396.985801747    396.089182384    
398.790408997    397.569225227    396.240053362    395.652055911    397.419155099    
395.94443944    396.873740686    397.493384647    396.370141232    398.799952998    
396.19281067    397.315110968    398.675936849    397.488351567    391.751552153    
392.013532242    392.245924437    392.807120015    389.435493329    393.891002968    
393.642440658    392.890762071    390.901473177    391.810250178    390.154304346    
391.457479726    392.838392799    390.749417468    393.531017224    392.672494932    
390.758377366    387.873923267    394.138896225    397.95744283    397.052112702    
398.911545603    398.28424327    397.794478162    399.127500284    398.659561364    
398.494625844    398.014948913    384.161841287    392.279691307    390.250276392    
391.293234901    389.426921313    393.374598122    388.310429625    386.629586342    
385.593527281    385.987918686    382.452693468    383.08771323    384.686744524    
385.162975581    385.536952234    385.889103376    380.074270765    380.72229927    
382.00295473    384.223402275    384.162638388    385.293251584    388.023792485    
388.125019116    388.24868269    387.90681186    388.232704716    388.128953542    
378.026072246    377.729820557    377.416849089    372.303320854    372.623790278    
383.050715323    383.499599602    378.484131965    386.379924942    376.16182794    
372.467508776    376.018124957    372.702589694    393.549717798    393.333322359    
397.410129742    397.035024863    397.923864465    396.679740282    397.79749096    
397.351849231    398.533299342    398.20915756    397.128645581    392.629913503    
394.385881768    387.89130098    387.888609292    390.610445215    391.48080871    
391.280535892    393.770177782    394.862309012    393.688549261    394.843690679    
395.585121898    395.801214619    394.861765546    393.881941526    392.317319394    
390.464614178    392.729412302    390.549281504    394.35400182    395.183768179    
383.156346395    381.132097677    375.055033068    378.355672879    383.725175409    
379.912712775    382.341709966    384.755776485    384.2549388    381.042779564    
383.220257634    383.645193749    380.003395428    382.745693301    383.638069288    
381.852707522    381.217409686    378.564207995    378.940909833    377.252109301    
373.89803759    376.583165922    370.354725151    375.458878732    374.194419778    
376.760070634    372.697122583    372.027987211    374.822490552    379.073497047    
380.535510928    380.174472854    381.059007672    370.991643816    369.523262019    
372.393976192    371.170799355    373.984365773    366.327266217    374.743167257    
375.927282247    367.673585721    367.37379555    368.058741427    369.221938052    
367.235230203    367.69774046    369.113018698    369.401980966    370.811768276    
367.114973428    371.972835389    373.508667779    371.045919356    391.382381026    
389.762644348    391.164315288    392.170086145    372.620692125    372.550817296    
381.037438274    381.09943313    375.228871134    373.073801197    394.736204455    
393.994321157    392.127558666    388.515957105    390.210397896    388.196083604    
390.258664664    392.698208216    392.290050305    394.175744387    393.650174566    
391.248185404    388.288649799    391.665984471    389.571720656    389.391836212    
392.773503213    391.392131262    394.285959019    392.860607457    375.812739787    
377.13341906    374.560326895    360.920787968    366.992319046    374.42743412    
372.505165747    375.10822624    373.238035697    
-0.473613906457    -0.476958939547    -0.475891239819    -0.476016373007    -0.475467187601    
-0.47472885338    -0.430393212237    -0.474891602848    -0.451883109529    -0.477547474159    
-0.454511797446    -0.431467197238    -0.477250593911    -0.45574951295    -0.433751114822    
-0.434892835716    -0.458437220435    -0.436215461049    -0.481835582047    -0.457697316864    
-0.43667586325    -0.480098851261    -0.459254233978    -0.456173038397    -0.437528102211    
-0.481306711893    -0.458357835251    -0.42963123037    -0.43523440418    -0.456699331092    
-0.431797624    -0.427819599916    -0.450903503105    -0.429444088528    -0.478297884337    
-0.430999679445    -0.45375404426    -0.478348245818    -0.455484794839    -0.387400669603    
-0.388674129829    -0.389399711877    -0.384434859906    -0.35423296161    -0.386000377907    
-0.386594975738    -0.388111667505    -0.366205959596    -0.373741327662    -0.352710618571    
-0.368766737689    -0.394972172202    -0.371734275411    -0.396176351217    -0.362635539559    
-0.346977285561    -0.314635087602    -0.382178575907    -0.455803131374    -0.432324563051    
-0.475620652239    -0.454924422406    -0.427983589573    -0.476117126842    -0.45290858334    
-0.454219875238    -0.427629542929    -0.242734588361    -0.385379173957    -0.358031878118    
-0.36751185457    -0.340490624254    -0.390221063661    -0.310052037969    -0.260231944347    
-0.274408409665    -0.293383582332    -0.225968138187    -0.237303658053    -0.281437247426    
-0.268667174178    -0.26520121218    -0.27698912647    -0.257361930362    -0.249402975167    
-0.258677883257    -0.290339066116    -0.277339937861    -0.292508190445    -0.323137957844    
-0.333877883182    -0.336355365635    -0.322959177467    -0.324812658089    -0.324414181626    
-0.226370317554    -0.219678767146    -0.209136625165    -0.169634728389    -0.163083768505    
-0.275231436789    -0.27494549085    -0.230885260247    -0.29302002503    -0.173944733995    
-0.14388730754    -0.174800494304    -0.148262167736    -0.381817292911    -0.372009788243    
-0.427586519936    -0.429801579824    -0.45399437251    -0.421131340268    -0.445524013617    
-0.419996847838    -0.472656474996    -0.451894972748    -0.431237541589    -0.352281438291    
-0.372930024388    -0.286397816657    -0.290065816731    -0.326402668131    -0.308201632159    
-0.3135982785    -0.344687433225    -0.345930153479    -0.324511050082    -0.348523793368    
-0.368634433206    -0.385365274924    -0.385058608394    -0.36582988715    -0.345887419134    
-0.316409160675    -0.330465601796    -0.29680515271    -0.361904445717    -0.385823226052    
-0.280367002202    -0.267212576268    -0.210311468941    -0.240148460971    -0.250796465963    
-0.24246864313    -0.269431197032    -0.285692560741    -0.293566926718    -0.243711002679    
-0.274834350532    -0.264923187985    -0.219428002775    -0.216928966199    -0.223475666799    
-0.233839791646    -0.245329962256    -0.242173833685    -0.237138864684    -0.2084391853    
-0.194277654215    -0.222543463364    -0.170594201614    -0.199999853484    -0.109040221062    
-0.135591050103    -0.136988469473    -0.11732301752    -0.146667047408    -0.20089649699    
-0.19246603818    -0.207735454944    -0.198950969094    -0.137481524181    -0.154810916154    
-0.181747879782    -0.174862878087    -0.18775207891    -0.139521275026    -0.1942035574    
-0.194768556541    -0.158385887844    -0.14296776159    -0.0967209143018    -0.113745744682    
-0.110224070776    -0.126077945136    -0.137465985195    -0.133327780458    -0.146893039734    
-0.127188684903    -0.155192542397    -0.156262440155    -0.127818862369    -0.3670710434    
-0.340384991243    -0.333122250184    -0.359813685765    -0.171655897885    -0.181082226903    
-0.240525938452    -0.228147220789    -0.181355215649    -0.167613082905    -0.391086140185    
-0.373957593878    -0.337378653636    -0.290975068905    -0.307035758057    -0.304235664306    
-0.321579412619    -0.365726444207    -0.350318230303    -0.388234006366    -0.371381393469    
-0.353728073795    -0.319773690464    -0.331696670391    -0.301611654213    -0.320612729299    
-0.367921707496    -0.352899302113    -0.392274106461    -0.376951549113    -0.171861220406    
-0.144701982301    -0.144202011608    -0.115156617554    -0.147132875009    -0.199716487612    
-0.183825941642    -0.122180157729    -0.121757292079    
4     5     6     1     
9     8     7     10     
12     11     6     7     
6     11     12     13     
10     14     3     15     
17     16     9     18     
7     19     11     8     
19     20     7     12     
7     12     11     19     
22     21     10     15     
15     10     14     21     
10     14     21     8     
10     21     22     9     
10     9     8     21     
11     23     4     6     
10     14     8     23     
10     8     7     23     
8     11     7     23     
10     23     6     3     
3     14     10     23     
3     14     23     2     
3     23     6     1     
3     2     23     1     
6     4     1     23     
2     23     1     4     
10     23     7     6     
7     11     6     23     
15     21     14     24     
3     14     2     25     
15     14     3     25     
14     15     24     25     
12     11     19     26     
12     13     11     26     
11     26     13     27     
5     27     13     28     
6     4     11     27     
6     11     13     27     
13     27     5     6     
6     5     4     27     
2     25     14     30     
2     23     4     30     
14     23     2     30     
14     21     8     33     
14     30     25     34     
26     27     11     35     
11     27     4     35     
4     23     11     35     
4     30     23     35     
11     35     23     36     
23     35     30     36     
8     14     33     36     
8     23     14     36     
23     30     14     36     
8     11     23     36     
26     35     11     37     
11     35     36     37     
35     36     37     38     
11     19     26     37     
7     8     9     40     
8     7     19     40     
7     40     9     20     
7     20     19     40     
19     40     20     31     
9     20     40     17     
31     40     20     17     
9     16     17     40     
17     31     40     16     
43     39     38     44     
14     25     24     46     
14     34     25     46     
24     14     46     47     
46     47     14     48     
14     24     21     47     
33     47     49     48     
50     39     38     37     
38     37     35     50     
36     51     33     38     
43     51     45     44     
38     43     44     51     
48     49     33     51     
33     51     49     45     
45     51     43     33     
38     51     33     43     
41     52     30     53     
51     52     48     53     
53     52     30     51     
30     51     52     36     
48     51     33     52     
33     51     36     52     
48     52     33     14     
33     36     14     52     
14     36     30     52     
14     46     48     52     
14     30     34     52     
14     34     46     52     
53     52     48     54     
53     48     51     54     
51     54     48     55     
53     54     51     56     
51     54     55     56     
34     46     52     57     
48     52     46     57     
48     54     52     57     
46     47     48     57     
44     51     45     58     
44     51     58     56     
45     58     51     55     
56     55     51     58     
8     33     21     60     
21     60     33     29     
9     16     40     60     
9     40     8     60     
22     9     21     60     
21     60     29     22     
22     60     29     18     
18     60     29     16     
22     9     60     18     
18     16     9     60     
9     8     21     60     
29     60     33     61     
16     60     29     61     
45     33     43     61     
45     49     33     61     
29     61     33     49     
42     62     43     32     
43     62     42     61     
42     61     62     16     
59     62     32     31     
32     42     62     59     
42     16     62     59     
31     59     62     16     
31     40     16     62     
16     40     60     62     
16     60     61     62     
33     61     60     62     
43     61     33     62     
39     62     19     32     
32     62     43     39     
31     62     32     19     
19     40     31     62     
30     34     52     63     
30     52     41     63     
41     63     53     64     
53     41     52     63     
38     50     35     65     
53     30     41     65     
41     65     30     35     
38     35     36     65     
30     36     35     65     
30     53     51     65     
30     51     36     65     
38     36     51     65     
38     51     44     65     
38     44     39     66     
38     39     50     66     
35     65     50     70     
41     65     35     70     
34     52     63     72     
34     57     52     72     
52     57     54     72     
64     63     53     72     
53     63     52     72     
64     72     53     54     
53     52     54     72     
67     73     66     71     
66     73     67     50     
71     75     66     44     
71     73     66     75     
66     73     50     75     
44     38     65     75     
38     44     66     75     
38     50     65     75     
38     66     50     75     
50     75     73     77     
65     77     53     56     
64     53     41     77     
64     77     41     76     
76     77     41     70     
64     77     76     69     
53     65     41     77     
41     65     70     77     
64     54     53     77     
56     53     54     77     
71     73     75     78     
44     71     75     78     
73     77     75     78     
56     65     77     78     
75     78     77     65     
56     65     78     44     
44     75     65     78     
69     77     76     79     
70     76     77     79     
70     79     77     50     
73     50     77     79     
21     33     14     47     
14     48     47     33     
49     47     33     29     
21     29     33     47     
56     44     51     65     
56     51     53     65     
48     49     51     55     
45     51     49     55     
50     70     65     77     
65     75     50     77     
8     40     19     80     
19     40     62     80     
19     62     39     80     
38     39     43     80     
39     62     43     80     
33     38     43     80     
43     62     33     80     
33     60     8     80     
33     62     60     80     
8     60     40     80     
40     60     62     80     
8     36     33     80     
38     33     36     80     
39     19     80     37     
38     37     39     80     
38     36     37     80     
11     19     37     80     
11     37     36     80     
8     19     11     80     
8     11     36     80     
50     70     79     81     
67     50     73     81     
73     50     79     81     
69     82     64     68     
69     76     64     82     
64     41     63     82     
64     76     41     82     
67     81     73     74     
73     81     79     74     

