Title = " tecplot file for 2D Cavity problem " 
variables = "x", "y", "z", "velX", "cellCentroidY" 
Zone T = "nmesh0" N = 86 E = 234 DATAPACKING = BLOCK, VARLOCATION = ([4-5]=CELLCENTERED), ZONETYPE=FETETRAHEDRON
0.04200366788    -0.0090313917026    -0.059950577298    -0.0091472639982    -0.0092070130631    
-0.068697194278    -0.11743831635    -0.16503904625    -0.12863354104    -0.11733826995    
-0.23610930287    -0.16343067608    -0.0057675576389    -0.42296874523    -0.3158608377    
-0.40753334761    -0.39426568151    0.024327076972    0.11803464131    -0.029528370127    
-0.093885757029    -0.39857164025    -0.33262723684    -0.4073702395    -0.31114178896    
0.045684359968    -0.27584463358    -0.33235824108    -0.28083875775    -0.18753695488    
-0.29911604524    -0.27456402779    -0.20082744956    -0.056873571128    -0.061174482107    
0.031621340662    -0.33568501472    -0.30310287634    -0.28339850903    -0.24915324152    
-0.3474381268    -0.20441767573    -0.20621149242    -0.18693882227    -0.13476338983    
-0.096805028617    0.036933004856    -0.03245934844    -0.013419246301    -0.13240630925    
-0.04118507728    -0.23437448314    -0.22919301689    -0.23312325776    -0.18743665516    
-0.12949573994    -0.12804052234    -0.04975425452    -0.14424198866    -0.026364712045    
-0.22267621756    -0.12831155956    -0.24538828908    -0.15811020136    -0.071546114981    
-0.052821282297    -0.046197623014    -0.14662386477    -0.16609786451    0.015071149915    
-0.23836529255    -0.13248485327    -0.19018102103    -0.094359830022    -0.073288328946    
0.0025002514012    -0.024417564273    -0.071007244289    -0.15145096183    -0.11792815477    
-0.12434826791    0.0036510885693    -0.33518958092    -0.18621949852    0.0041586537845    
-0.11848574132    
-0.5    -0.41674688458    -0.5    -0.5    -0.40289950371    
-0.5    -0.40743523836    -0.5    -0.5    -0.3970053196    
-0.5    -0.5    -0.5    -0.28292962909    -0.32092088461    
-0.29863846302    -0.33723035455    -0.41830760241    -0.5    -0.41277977824    
-0.42418280244    -0.12734723091    -0.21379083395    -0.18672072887    -0.1080025211    
-0.31761169434    -0.41750517488    -0.24754928052    -0.098688803613    -0.41207942367    
-0.3408729732    -0.22237314284    -0.3187790215    -0.27542617917    -0.3252928257    
-0.28916287422    -0.19829428196    -0.14423176894    -0.27121648192    -0.17014044523    
-0.24254579842    -0.24145521224    -0.29430642724    -0.31964325905    -0.32122588158    
-0.29029551148    -0.32322400808    -0.32711231709    -0.23916488886    -0.35726514459    
-0.34549835324    -0.2038089725    -0.10072826594    -0.072664380074    -0.23401971161    
-0.17197673023    -0.24116706848    0.0026446154807    -0.068703122437    -0.097555346787    
-0.13675382733    -0.25626853108    -0.16637940657    -0.16424137354    -0.16516906023    
-0.21266616881    -0.24319313467    -0.21781112254    -0.13821902871    -0.20733688772    
-0.25962746143    -0.1283313036    -0.17886283038    -0.070242129266    -0.18226191401    
-0.27010452747    -0.02158492431    -0.095085553825    -0.090106748044    -0.11811682582    
-0.23039861023    -0.10164608061    -0.26796209812    -0.2027105391    -0.19605831802    
-0.16018170118    
0.028995898372    0.046871855855    0.02759852098    0.084021144665    0.11928126216    
0.13650920358    0.17871151865    0.16131149801    -0.062857338481    0.0077105318196    
-0.02899071622    0.05839041274    -0.061958011744    0.096028618515    0.15575273335    
0.24282771349    0.051657501608    -0.037241317332    -0.055645185549    0.20995981991    
0.091885209084    0.0074413027614    -0.031363163143    0.085017584264    0.094171121716    
0.065575197339    0.0098271481693    0.2142534256    -0.028043944389    0.088892474771    
0.063413895667    0.075111486018    0.082229703665    0.1706430316    0.066784948111    
-0.062301639467    0.3139936626    0.19516539186    0.29248830676    0.32927832007    
0.12425024062    0.12834770977    0.20130155981    -0.026390599087    0.14789235592    
0.3097256124    0.17034308612    0.25056269765    0.087443321943    0.076657891273    
-0.027454001829    0.24158235897    0.14730614424    0.24105484784    0.32667097449    
0.30040669441    0.22994162142    0.26697871089    0.30619335175    0.28269585967    
0.048695735633    0.071087941527    0.13299069363    0.12483026832    0.20097199082    
0.32793805003    -0.011554532684    -0.015375606716    0.21756884456    0.17704497278    
0.0068812705576    -0.057732902467    0.18471531557    0.21636866033    0.11546137929    
0.21634921432    0.15856590867    0.11393018812    0.075541429222    0.16571289301    
0.15176047385    0.19533498585    0.032354045659    0.064372561872    0.26334768534    
0.052078723907    
397.279962475    398.007184489    397.044628693    397.455674925    398.53166834    
398.791012456    398.19810516    397.722269761    396.632814435    398.465673161    
398.928888305    395.82523665    393.152117847    395.938940998    395.911196359    
396.049736394    391.814383109    397.561168206    392.656816918    396.996983284    
398.910522041    399.118978767    398.453687894    396.660018784    392.801996902    
396.157734712    392.52271524    397.853800025    396.691117579    378.874734315    
380.227936229    384.93105464    393.91551117    396.442316579    393.955608627    
393.815661827    390.541682221    389.942611182    389.123587739    388.694925909    
390.947479045    391.418184912    391.598052659    391.510739707    390.422484498    
389.740287118    388.798422114    392.159497575    391.609263951    390.495089668    
393.338414729    388.829508434    394.945836589    394.300891826    393.23716051    
392.776486986    384.512953066    386.073789701    385.233913087    389.041176062    
389.038796052    393.630312247    387.095445993    389.636777384    386.223368559    
390.203828259    387.790764983    388.594143271    385.416382395    392.210871889    
386.317980906    386.535262931    389.8542614    391.22011068    386.229656976    
388.690276413    391.280008971    390.61772584    385.543386835    385.529521038    
388.154317698    388.587678316    383.714936619    383.483153324    382.586898963    
388.071516678    393.0007957    388.284210735    391.696576612    391.231017051    
389.922931395    389.287006358    387.642772866    388.015413505    385.982616887    
390.59995322    389.105406658    385.475107084    386.497712514    386.245563195    
390.06659956    385.3740957    390.136959026    389.987016936    389.640354618    
388.0806446    386.641097042    385.552811658    389.722327885    382.141841719    
386.102579477    386.024786412    382.884094725    387.821156078    387.901484501    
389.451766393    389.723751457    386.700446961    385.868116809    389.647271026    
385.21698203    383.284668192    388.227362937    387.052424559    386.679344704    
384.637204904    384.990977827    386.084325915    385.091522296    384.662998878    
382.141850248    380.564207904    383.792184853    381.721111567    386.608259813    
384.431707156    382.803815441    380.227773146    377.776427133    378.351422512    
375.040070157    380.613045262    381.56555976    374.21504522    377.288243607    
370.17234943    376.095935802    379.794538566    379.747726959    375.611314827    
382.53771376    382.762588819    380.276529003    382.943752783    383.523230013    
378.298677211    377.722669127    380.421676177    378.865008687    380.822268519    
374.606495386    379.60362469    382.863772569    379.964952367    375.714205761    
380.112518318    375.700741535    377.148225404    379.041757225    383.595613057    
384.676463244    389.612199049    381.845652927    389.067996815    385.252318499    
376.410398669    380.228071756    372.753949403    380.434264174    372.994487571    
380.290066596    380.985592324    384.508034225    384.560600291    362.592587798    
367.186290266    374.674078025    370.531554149    372.888805001    378.837227875    
373.91205088    381.033571103    379.531300528    380.448116156    382.773807401    
381.876575682    382.850513815    386.619499296    367.969717508    370.879549948    
368.927247911    368.368030586    377.528488344    376.16268447    375.6886988    
377.07337077    371.682123095    378.453502479    370.560604021    380.845695252    
381.207765291    376.827756559    357.067134217    359.835891695    364.165575769    
368.074632373    376.236555186    375.210926609    387.672879381    382.351891716    
381.834534189    386.642211952    384.71343239    377.263763879    368.31342062    
392.277255321    378.274944046    379.511464475    380.953350906    374.502221368    
377.661973743    375.548122209    372.058713109    365.327957252    
-0.459548712604    -0.477979727245    -0.459095317769    -0.451745433879    -0.473275781999    
-0.473694564842    -0.473088227251    -0.456123151029    -0.451526412417    -0.4793830598    
-0.479980650577    -0.433172817155    -0.39477528846    -0.434813615563    -0.433835186221    
-0.431819014367    -0.371035812034    -0.458266113166    -0.387513151883    -0.455820179499    
-0.481112609138    -0.481791122747    -0.479831188321    -0.433848248657    -0.390092813311    
-0.437301194181    -0.390965269927    -0.459507615045    -0.436887925416    -0.14122002421    
-0.137106191925    -0.159567261438    -0.398628581931    -0.431971831455    -0.386298017389    
-0.390405340819    -0.282255453761    -0.298958042347    -0.27784824361    -0.28637515101    
-0.352583410478    -0.353159349143    -0.354619465649    -0.367411226683    -0.363444251537    
-0.3513321186    -0.341988528704    -0.376340003869    -0.371783997481    -0.269113403547    
-0.309888118523    -0.258531638195    -0.287534095658    -0.297233727655    -0.281861277873    
-0.297176068222    -0.183714817377    -0.186846764089    -0.18253138748    -0.229263571641    
-0.262197860967    -0.278590190483    -0.225055461192    -0.275465128676    -0.218410043027    
-0.295569028417    -0.246278967914    -0.294236719421    -0.247502209272    -0.37057993361    
-0.272323048422    -0.284275394795    -0.332444452743    -0.334606316472    -0.294308117852    
-0.331384125175    -0.356880315667    -0.335014806894    -0.301680353639    -0.29186893669    
-0.300262345116    -0.291817878181    -0.281647540078    -0.273693519072    -0.261991528036    
-0.313549783717    -0.379643917496    -0.312110676294    -0.352258005612    -0.351430084199    
-0.348591121812    -0.345273392518    -0.313470799624    -0.312173533087    -0.307145356688    
-0.372478099094    -0.342387821254    -0.298972351799    -0.308010800672    -0.21579069897    
-0.25496512553    -0.231242885511    -0.252068531377    -0.229122884891    -0.210926099089    
-0.198220433391    -0.178552279268    -0.192138855938    -0.220455532104    -0.145796900912    
-0.212889215161    -0.194116742853    -0.170809458197    -0.243519032009    -0.2668052965    
-0.29637867181    -0.28832479563    -0.278058974415    -0.268155721615    -0.265493046464    
-0.231000518385    -0.189499351209    -0.235061906964    -0.229190369787    -0.272580639624    
-0.256136521502    -0.263295511158    -0.288151611498    -0.286777424936    -0.271763199028    
-0.265381286964    -0.239459344057    -0.198704475915    -0.17296487327    -0.200735749861    
-0.16701032613    -0.20788086035    -0.157896831523    -0.129244994384    -0.147267268469    
-0.127350778016    -0.182160781528    -0.170310541419    -0.141863790755    -0.16700512343    
-0.122936441089    -0.151994057736    -0.166494355646    -0.160921589897    -0.12708597714    
-0.19783865477    -0.204473257907    -0.179137037346    -0.261040187971    -0.263517642741    
-0.219693053852    -0.224290298321    -0.136915912683    -0.113862170221    -0.144919781525    
-0.112033436286    -0.139440110868    -0.193015905967    -0.182709794572    -0.136473187904    
-0.165516509733    -0.114663734686    -0.13930004268    -0.22601672813    -0.269158212868    
-0.26057457481    -0.310705413443    -0.234968882882    -0.273630998102    -0.251955630325    
-0.150776457007    -0.202505382542    -0.13214966099    -0.18833377831    -0.138775827609    
-0.193331081736    -0.204581458574    -0.236800884572    -0.236734137943    -0.0659832758253    
-0.0583453653266    -0.103222408525    -0.108894369535    -0.123188616478    -0.208378446506    
-0.163837745331    -0.227689835695    -0.21334327057    -0.20862179999    -0.235758196325    
-0.227354358494    -0.219213256382    -0.260102360717    -0.116854370762    -0.13821578427    
-0.113259861107    -0.13225717368    -0.17405448495    -0.174287210692    -0.173728722338    
-0.173376751098    -0.156069237719    -0.208286002214    -0.14064499963    -0.236629771413    
-0.223180136047    -0.192136854571    -0.0473310149749    -0.07267365625    -0.0959636104692    
-0.124830536039    -0.16672593989    -0.140712247142    -0.220140930054    -0.206336613756    
-0.205579953435    -0.240476083505    -0.231403986024    -0.211418321447    -0.139140510915    
-0.245123186012    -0.209403480979    -0.204996028555    -0.216674577214    -0.164844660827    
-0.19615420953    -0.178776720336    -0.1596234892    -0.116596744172    
1     2     3     18     
3     2     1     4     
4     3     2     21     
12     11     10     30     
10     11     12     9     
12     10     9     3     
3     10     9     13     
12     10     3     21     
3     10     13     18     
13     18     1     3     
1     18     13     19     
3     18     2     10     
10     18     2     51     
3     10     2     21     
5     7     6     21     
6     7     5     20     
5     20     7     34     
6     21     7     8     
5     7     21     45     
5     21     6     4     
12     21     6     8     
6     21     12     3     
3     6     21     4     
12     10     21     30     
2     21     10     35     
4     21     2     5     
2     5     21     35     
8     12     21     30     
8     21     7     30     
25     29     23     61     
23     29     25     22     
22     25     23     24     
10     21     30     50     
10     30     11     27     
27     10     30     44     
7     30     21     45     
31     32     15     41     
15     32     31     33     
33     15     32     42     
33     32     31     71     
20     34     5     47     
7     5     34     45     
7     34     20     48     
5     21     35     45     
5     35     2     26     
26     35     2     51     
5     35     26     47     
10     35     21     50     
2     35     10     51     
32     41     31     83     
15     31     41     17     
15     41     32     42     
14     41     15     16     
15     41     14     17     
17     41     14     83     
31     41     17     83     
32     41     25     63     
25     41     32     24     
24     32     25     23     
24     41     32     83     
15     28     41     42     
41     28     15     16     
41     42     28     63     
15     28     42     43     
32     42     41     63     
43     42     15     33     
28     42     43     52     
43     42     33     45     
33     42     32     84     
10     30     44     50     
42     45     43     81     
33     45     42     62     
34     45     5     35     
7     45     34     48     
34     45     35     62     
5     34     35     47     
35     45     21     50     
34     47     20     48     
26     47     35     49     
35     47     34     49     
47     48     34     76     
34     48     45     57     
35     26     49     67     
34     35     49     62     
34     49     47     70     
45     50     35     62     
21     50     45     30     
33     50     45     62     
45     50     33     30     
30     50     33     44     
10     35     50     44     
35     44     10     51     
35     50     44     62     
33     44     50     62     
35     51     26     67     
2     26     51     18     
18     26     51     36     
26     51     36     67     
35     44     51     67     
42     52     28     63     
43     28     52     39     
43     52     42     73     
39     52     43     55     
28     52     39     37     
37     52     39     40     
28     52     37     38     
38     52     37     40     
28     52     38     63     
39     40     52     55     
38     52     40     54     
52     55     56     57     
56     55     52     40     
40     52     56     69     
43     55     52     57     
46     57     48     66     
48     57     46     45     
45     57     46     43     
34     48     57     76     
34     57     45     81     
55     57     43     46     
52     43     57     73     
56     52     57     69     
56     57     55     46     
56     57     46     66     
43     45     57     81     
42     33     62     84     
42     62     45     81     
44     62     33     71     
44     35     62     67     
45     62     34     81     
49     62     35     67     
34     62     49     75     
52     63     42     73     
38     63     52     73     
28     63     38     41     
41     63     38     25     
32     42     63     84     
25     32     63     61     
25     63     38     53     
53     63     38     73     
25     63     53     61     
32     63     61     84     
25     32     61     23     
61     63     53     64     
64     61     63     84     
64     53     61     79     
64     63     53     73     
65     66     60     85     
60     66     65     56     
56     65     60     74     
56     66     65     57     
57     66     65     85     
56     57     65     69     
44     67     62     68     
68     62     44     71     
68     67     62     86     
62     67     49     86     
59     69     40     56     
40     69     59     54     
54     40     69     52     
56     59     69     74     
54     52     69     38     
52     57     69     73     
65     69     57     73     
56     69     65     74     
52     69     38     73     
54     38     69     53     
38     69     53     73     
49     70     34     75     
47     34     70     76     
33     71     62     84     
44     71     33     31     
68     62     71     84     
31     71     32     83     
33     32     71     84     
69     73     65     80     
57     65     73     81     
53     73     69     80     
63     73     64     42     
53     64     73     80     
42     64     63     84     
42     73     64     81     
43     73     42     81     
57     73     43     81     
60     58     74     82     
74     58     60     59     
60     74     59     56     
60     74     65     82     
65     74     69     80     
34     75     70     65     
65     75     70     82     
34     65     70     76     
34     75     65     81     
70     76     65     85     
34     65     76     57     
65     57     34     81     
65     76     57     85     
57     76     48     66     
64     53     79     80     
64     79     61     86     
65     74     80     82     
64     80     79     86     
65     80     73     81     
75     81     80     65     
80     81     75     64     
64     80     81     73     
64     75     80     86     
64     81     75     62     
65     80     75     82     
34     75     81     62     
62     81     42     64     
64     62     75     86     
74     77     82     58     
82     77     74     78     
74     82     78     80     
80     82     78     75     
70     65     82     85     
65     60     82     85     
23     24     32     83     
23     32     61     71     
61     71     32     84     
23     32     71     83     
76     66     57     85     
49     75     62     86     
80     75     78     86     
14     83     41     24     
68     62     84     86     
68     84     71     61     
42     84     62     64     
64     61     84     86     
84     86     62     64     
68     86     84     61     
61     68     86     72     
80     86     78     79     

