Title = " tecplot file for 2D Cavity problem " 
variables = "x", "y", "z", "velX", "cellCentroidY" 
Zone T = "nmesh0" N = 95 E = 234 DATAPACKING = BLOCK, VARLOCATION = ([4-5]=CELLCENTERED),  ZONETYPE=FETETRAHEDRON 
0.5    0.5    0.41672585222    0.5    0.5    
0.5    0.41256688197    0.5    0.43249949214    0.5    
0.5    0.41596076012    0.5    0.5    0.40994277596    
0.5    0.5    0.3400972769    0.40643143654    0.5    
0.5    0.40456363559    0.5    0.5    0.41802930832    
0.32744805705    0.5    0.41441592574    0.5    0.40529754758    
0.5    0.24049588671    0.24149773849    0.21599367261    0.43463635445    
0.4183511734    0.32413241278    0.41288724785    0.33426624537    0.404743433    
0.5    0.41083729267    0.5    0.41994029284    0.5    
0.41080650687    0.40574300289    0.41527977586    0.42240139842    0.41142642498    
0.34415650368    0.23977512121    0.30331286788    0.35841032863    0.34785842896    
0.42380711436    0.3027382791    0.28961977363    0.25203999877    0.27539527416    
0.199893713    0.26720950007    0.20948413014    0.31029897928    0.36348101497    
0.27479037642    0.34152519703    0.28594651818    0.26374059916    0.16273595393    
0.15969090164    0.31950846314    0.31985118985    0.32444682717    0.25187698007    
0.22624154389    0.16945490241    0.20461961627    0.20344738662    0.19898495078    
0.15861544013    0.27723261714    0.1569955647    0.32784238458    0.10399028659    
0.1281991899    0.033566184342    0.21671915054    0.16263964772    0.12223561108    
0.22022998333    0.13536153734    0.19300557673    0.44331139326    0.12907977402    

0.5    0.41638409393    0.5    0.5    0.41261783441    
0.5    0.5    0.432153258    0.5    0.5    
0.41627475889    0.5    0.5    0.33028126457    0.35635510087    
0.41286418147    0.32591989422    0.5    0.39572280645    0.33874036624    
0.23105213736    0.28228649497    0.28552613117    0.32682466149    0.38527554274    
0.5    0.23719398748    0.20783288777    0.15525254239    0.27081358433    
0.23650637431    0.5    0.5    0.40878561139    0.43160220981    
0.41754481196    0.5    0.5    0.4051028192    0.14297755063    
0.13091126552    0.10955008119    0.11338168767    0.19208976626    0.17639973484    
0.21015691757    0.11606233567    0.18050545454    0.34662178159    0.31806838512    
0.42463803291    0.4138597846    0.40688899159    0.36555072665    0.23752991855    
0.30121514201    0.13677279651    0.1197059527    0.046330191195    0.36280527711    
0.40188318491    0.40112841129    0.29322531819    0.29386761785    0.27377107739    
0.26993781328    0.31281200051    0.35170808434    0.27493157983    0.3275821209    
0.34828823805    0.20585776865    0.21250197291    0.32391750813    0.32520911098    
0.28740420938    0.19160328805    0.14584951103    0.095006659627    0.24614353478    
0.15089358389    0.20232315361    0.23456151783    0.1796207428    0.10001272708    
0.1128847003    0.1805921495    0.1858946681    0.22532527149    0.18951381743    
0.16222573817    0.26129713655    0.063307881355    0.2766187191    0.26909923553    

0.0    -0.03482816    -0.034013318223    -0.1    -0.13515066132    
-0.2    -0.13472599842    0.049668605697    0.050932008248    0.1    
0.1338315988    0.13663319722    0.2    0.25823932804    0.21887886524    
0.23313293902    0.16526434067    0.051700528289    0.077648535371    0.049445390921    
0.22544000624    0.27084487677    0.32885534463    -0.067293913511    -0.07909090817    
-0.06652190812    0.10549143739    0.16132470965    0.15304269004    0.049918755889    
-0.0051805641003    0.10595417938    -0.0057556705344    0.048317167908    0.2882578373    
0.15958067775    0.17247740856    0.23814801874    -0.0074634975754    0.0837681517    
0.050671573191    0.17947740853    0.24033164112    0.25303474069    0.32582332107    
-0.022460795939    -0.014157147147    -0.11217790842    0.0029560043477    0.13202397525    
0.22703492641    -0.041891459376    0.11633669585    0.3114284277    0.33843892813    
-0.10024724901    0.0090291341767    0.13685636222    0.037774868309    0.19342458248    
0.1555070281    0.27786177397    0.304577142    0.27183353901    0.19242742658    
0.18705484271    -0.044781114906    0.047008216381    0.0049936147407    0.21818335354    
0.34207472205    -0.059111025184    0.086622461677    0.13274617493    -0.075362809002    
0.099046066403    0.163947016    0.065897509456    0.19563245773    0.22885876894    
0.31712794304    0.35917812586    0.34298023582    0.21038195491    0.23530095816    
0.14954343438    0.1915037483    -0.033421739936    0.079760968685    0.2424338907    
0.25277805328    0.18298453093    0.10828005522    0.19240835309    0.26383394003    

261.78590236    214.247377402    216.580972694    210.110832804    202.450556346    
133.734004287    201.023995062    175.856599692    249.65114517    268.210308695    
223.27573778    146.137220586    189.95095254    172.79191359    195.673980347    
311.653449452    351.563950577    324.192517466    350.241441459    89.5510093565    
81.5833323012    93.0420902309    189.704997287    323.995776148    217.563126421    
323.678265284    303.318726342    373.756234339    374.123716342    338.034232452    
365.113190946    324.52414949    353.176004621    306.35890943    137.514755214    
89.5293773287    117.952310842    235.308685564    374.705178045    385.230868424    
378.407978469    376.312380075    354.864645001    373.695033303    353.281288432    
366.207230633    61.0659723979    32.3594779673    58.6932351139    255.351036558    
297.105344488    126.751939886    282.021160693    94.5708361123    58.3468876217    
101.001853842    89.1590011082    159.330997373    204.757084211    199.72616152    
205.515404473    298.255340958    347.508434324    321.467683756    311.651525328    
55.3288103588    37.6193440482    73.9607046974    88.6552848163    109.565031637    
176.284988868    354.628487461    346.001138315    332.394827879    387.949279303    
383.037429153    373.041536191    356.303826335    390.348256314    393.850861163    
388.915328631    363.586240927    359.791514503    330.541680851    337.948992624    
369.047618579    342.236362261    296.603814015    376.540389159    370.014103722    
306.339138238    344.753451328    170.956398174    200.289932429    365.795971286    
374.903749382    358.678556266    312.599009651    315.063089912    354.831981757    
237.741178538    249.489722595    329.205462192    209.06495145    117.955187223    
122.389078882    115.316622663    159.971222748    122.532273284    34.9545268494    
50.7737358152    188.34341588    117.749245127    174.753202392    314.737873775    
279.556288749    338.193553502    334.129751305    329.543279425    169.609297625    
236.351812386    218.07495589    198.215976819    198.51066743    225.286141632    
245.293552957    213.701978465    252.078808795    284.353768428    239.149048701    
302.915345885    309.199212043    314.63719643    291.023887759    244.911825074    
258.234178154    221.945650595    319.71224703    305.065971285    245.303048979    
291.364097107    157.320814382    195.262147419    239.515332962    240.890415666    
214.420095658    250.867812991    187.8244378    213.689086962    258.278070349    
273.228391519    157.62745621    208.810659119    235.854305711    195.702323835    
224.808176375    314.668851387    341.966059577    302.353463326    281.524490432    
330.474267501    329.877939502    310.722270168    330.634150746    281.145843052    
280.427306139    308.416023187    314.402812168    285.504480063    326.964048382    
243.370841467    256.962613528    272.171000448    218.012874941    268.226365746    
306.338831828    184.869499173    262.526851213    192.07323578    238.977342188    
250.829703865    293.586440656    159.281017853    180.502031578    228.282930068    
269.943684791    273.73060629    254.579076452    290.024910122    265.294572417    
296.495359957    264.380062578    294.511971131    322.857888051    308.594328111    
311.680775319    326.400016506    319.83329254    257.081486613    276.64895112    
241.617065993    245.783978807    282.135780981    227.445596916    281.321866495    
280.457108373    295.081605083    335.236183619    329.475582681    338.738564954    
348.752722433    354.409867606    342.1436245    285.959764005    303.131796846    
311.138836155    297.671961442    268.208149366    286.865255652    268.386531352    
290.444236771    292.548278997    303.460731532    318.226932596    304.088189622    
287.976731722    269.291017088    297.631004208    262.402818289    237.559595438    
260.956369379    279.875215664    385.592142385    389.79746609    
0.461631738909    0.478729154255    0.450860987307    0.448770133203    0.477690936506    
0.482523497761    0.483084257215    0.454865413153    0.424321068781    0.46173058824    
0.436185889085    0.477780506017    0.478720425021    0.451570181742    0.459612799803    
0.382148251719    0.356557323971    0.377925256776    0.32307826834    0.471837189001    
0.472189006932    0.450863479212    0.433094243832    0.394724352613    0.421358443136    
0.366944511284    0.379045371819    0.248685412745    0.280979283554    0.317305594491    
0.280814921153    0.368615483657    0.385172959283    0.428866250988    0.469164874636    
0.469189712091    0.446367372513    0.414097778823    0.185468804096    0.20856040219    
0.196108821458    0.237307742841    0.291326607795    0.271047585733    0.296556578641    
0.220173289233    0.452625450624    0.476819224177    0.453965746704    0.405011629279    
0.370789452489    0.43045381931    0.385715417864    0.454763555839    0.479230781236    
0.479133411025    0.461037035164    0.442674221592    0.440353102472    0.456816868717    
0.408651307875    0.437268114376    0.392314524947    0.368716710272    0.354440057185    
0.475697035098    0.475923582533    0.432246943149    0.430349537602    0.45028587701    
0.411735048239    0.215046342245    0.257858420628    0.209330231999    0.16691331544    
0.187905012768    0.179716762304    0.213633725368    0.172494976966    0.177670771362    
0.221947399368    0.225993896158    0.245039777555    0.207804072306    0.266638301753    
0.150789503897    0.152364776027    0.284604076767    0.311026802308    0.35727142521    
0.337603129437    0.383217855006    0.41477452702    0.374235489359    0.288391714699    
0.304731563804    0.350037142886    0.331009449307    0.251064903152    0.259335107989    
0.364228459147    0.35452287996    0.320401755006    0.379406270565    0.436817093739    
0.395271647489    0.427141503569    0.390492639346    0.394923515841    0.476670730872    
0.475972335449    0.385699170291    0.424144162872    0.393343008601    0.334092194361    
0.325141986976    0.31170593911    0.166702950564    0.175892755402    0.380793883982    
0.305451330688    0.337079538013    0.369293891123    0.345572546639    0.357502039697    
0.323317734173    0.36628910552    0.301132313637    0.302210126927    0.330618529107    
0.29506326784    0.255803201385    0.297812291455    0.253220127995    0.307736920127    
0.276351725781    0.31305281463    0.245916936248    0.291217406517    0.320698564913    
0.251597806127    0.363353879345    0.36957174238    0.341062764028    0.335311046145    
0.353216678247    0.302024106535    0.34852800609    0.317071084951    0.27736275684    
0.265082685881    0.372842114528    0.312512305784    0.285832037652    0.344980381956    
0.310342902205    0.19213223501    0.177173562146    0.224271220367    0.240986543927    
0.163796586605    0.151818725552    0.153633225704    0.185572631681    0.218703762855    
0.279623055061    0.252120951829    0.21790511201    0.279538960397    0.268826630653    
0.280250266236    0.289103113836    0.268176872748    0.310871394922    0.318724012849    
0.307009293392    0.344340168515    0.327547574558    0.341428459083    0.292208687809    
0.272292761398    0.232655899446    0.362896972049    0.342651750585    0.284128353261    
0.238351586536    0.209430581491    0.248833133763    0.21188015484    0.227911135518    
0.168644568708    0.211952709055    0.171223737739    0.112117484189    0.138281704745    
0.128303771998    0.0943742554729    0.106985819102    0.23292611937    0.204386157441    
0.284512642572    0.247936225775    0.216259106605    0.281185628003    0.248804722644    
0.242513375612    0.224935630348    0.213204444197    0.230995036571    0.254930106575    
0.159723731739    0.171556553712    0.236841447337    0.16812224119    0.146946664027    
0.125313507088    0.146572415855    0.20526435005    0.196822643844    0.221567782715    
0.208393202762    0.201411826702    0.185529934496    0.188678641588    0.22107478799    
0.232227336405    0.260444842036    0.236387532128    0.240835685054    0.276146848558    
0.224575934633    0.233720669097    0.291377816124    0.266638287612    
1     2     3     8     
3     2     1     4     
4     3     2     25     
5     7     4     25     
4     7     5     6     
1     8     3     9     
9     1     8     10     
9     8     3     19     
3     8     2     49     
9     10     8     11     
9     11     8     19     
9     10     11     12     
11     12     10     13     
9     12     11     19     
13     11     12     36     
14     15     16     35     
16     15     14     17     
17     16     15     36     
17     15     14     94     
18     19     9     3     
9     19     18     12     
12     19     18     53     
11     19     12     36     
8     19     11     20     
3     19     8     49     
20     19     11     50     
8     19     20     49     
21     22     23     44     
23     22     21     14     
14     23     22     54     
14     22     21     94     
24     25     2     49     
2     25     24     5     
5     2     25     4     
3     7     25     4     
25     7     3     26     
3     25     26     39     
2     25     3     49     
27     28     29     40     
29     28     27     21     
21     29     28     44     
21     28     27     94     
27     30     20     50     
20     30     27     31     
31     20     30     49     
31     30     27     40     
18     33     34     39     
34     33     18     32     
18     34     32     53     
16     35     15     36     
14     15     35     54     
12     36     19     53     
11     19     36     50     
37     36     12     53     
12     36     37     38     
38     12     36     13     
38     36     37     51     
35     36     38     51     
38     36     35     16     
16     38     36     13     
15     36     35     51     
13     36     16     11     
11     36     16     17     
11     36     17     50     
17     36     15     50     
18     26     39     3     
39     26     18     33     
34     39     33     52     
18     39     34     53     
3     39     18     19     
3     25     39     49     
27     40     30     28     
28     30     27     50     
28     40     30     73     
41     40     27     29     
27     40     41     31     
31     40     41     46     
30     40     31     46     
21     44     43     29     
43     44     21     45     
45     44     21     23     
21     44     28     94     
21     22     44     94     
40     46     30     73     
31     30     46     49     
41     46     40     47     
47     46     40     57     
46     49     30     67     
20     49     31     24     
24     20     49     2     
20     30     49     19     
20     49     2     8     
3     49     39     19     
19     49     39     68     
27     50     17     94     
17     50     27     20     
20     17     50     11     
20     50     30     19     
28     30     50     73     
28     50     27     94     
19     36     50     74     
15     50     36     74     
17     50     15     94     
15     36     51     74     
37     51     36     53     
39     52     34     68     
39     53     18     19     
19     39     53     68     
34     53     39     68     
32     18     53     37     
37     18     53     12     
19     53     36     74     
51     53     37     60     
36     53     51     74     
14     54     22     15     
15     54     22     64     
14     15     22     94     
46     57     47     72     
40     57     46     73     
53     60     51     74     
63     64     60     66     
60     64     63     62     
62     60     64     51     
62     63     60     70     
60     64     51     15     
15     60     64     65     
15     51     60     74     
60     64     65     66     
15     65     64     22     
15     60     65     74     
22     64     54     55     
65     64     22     84     
15     65     22     94     
66     64     65     84     
60     66     65     74     
66     63     64     80     
66     60     63     70     
22     64     55     84     
67     46     49     56     
30     67     49     68     
46     67     30     72     
53     68     34     76     
19     68     53     74     
49     68     19     30     
30     68     19     74     
39     68     49     67     
30     67     68     69     
39     68     67     75     
67     68     69     75     
30     69     68     73     
30     67     69     72     
39     52     68     75     
66     60     70     76     
66     70     63     80     
62     63     70     71     
63     70     71     95     
57     72     46     73     
47     46     72     48     
46     72     30     73     
30     72     69     73     
58     73     40     84     
40     73     58     57     
57     73     58     78     
28     40     73     84     
69     73     72     88     
50     73     30     74     
28     73     50     65     
28     73     65     84     
50     65     73     74     
50     28     65     94     
68     73     69     76     
30     73     68     74     
65     74     66     73     
60     66     74     76     
15     74     65     50     
15     50     65     94     
60     74     53     76     
19     74     50     30     
53     74     68     76     
68     74     73     76     
73     74     66     76     
65     73     66     84     
53     60     76     61     
61     60     76     70     
66     76     70     80     
66     73     76     77     
73     76     77     78     
66     77     76     80     
66     73     77     84     
69     76     73     78     
77     73     78     58     
77     78     76     89     
57     73     78     88     
57     78     58     59     
58     78     77     79     
59     57     78     88     
59     78     58     93     
58     78     79     93     
76     78     69     89     
73     69     78     88     
63     80     70     95     
76     80     77     92     
66     77     80     91     
70     80     76     92     
64     80     63     91     
66     80     64     91     
66     64     84     91     
65     84     44     28     
44     84     65     22     
22     65     44     94     
40     84     28     42     
28     42     84     44     
44     65     28     94     
77     90     86     87     
86     90     77     79     
79     86     90     85     
85     86     90     87     
87     77     90     92     
91     77     80     90     
80     90     77     92     
80     91     90     83     
66     77     91     84     
83     81     91     90     
91     81     83     82     
83     91     82     63     
63     91     80     83     
83     80     63     95     
63     91     82     64     
80     90     92     95     
70     80     92     95     
87     92     90     95     
90     80     83     95     
14     17     94     21     
17     94     21     27     

