Title = " tecplot file for 2D Cavity problem " 
variables = "x", "y", "z", "velX", "cellCentroidY" 
Zone T = "nmesh0" N = 87 E = 233 DATAPACKING = BLOCK, VARLOCATION = ([4-5]=CELLCENTERED), ZONETYPE=FETETRAHEDRON
-0.5    -0.5    -0.41666113413    -0.5    -0.5    
-0.5    -0.5    -0.41568232088    -0.5    -0.41560975998    
-0.5    -0.41534302811    -0.5    -0.24401451815    -0.27857327461    
-0.33351657523    -0.25818869482    -0.32791251751    -0.2420310765    -0.27776193619    
-0.33306600263    -0.15441928309    -0.33276963805    -0.27676409483    -0.23336877561    
-0.36108124256    -0.075540573349    -0.12125059962    -0.12233015178    -0.1658810894    
-0.21442145109    -0.35869646072    -0.35903713107    -0.38899332285    -0.07705043303    
-0.031523656171    -0.030118683353    -0.12862838805    -0.1544154289    -0.024988340214    
-0.5    -0.4149222672    -0.5    -0.5    -0.5    
-0.5    -0.41238322854    -0.40513378382    -0.5    -0.41588535905    
-0.5    -0.40931382775    -0.5    -0.40045493841    -0.5    
-0.5    -0.41469320655    -0.5    -0.41519010067    -0.17534734309    
-0.40482291579    -0.4099829793    -0.28851944208    -0.41078579426    -0.43093168736    
-0.093923687935    -0.33793058991    -0.43239808083    -0.36995851994    -0.5    
-0.21176297963    -0.32854515314    -0.34231925011    -0.1001540646    -0.31429108977    
-0.32110860944    -0.31909075379    -0.12605653703    -0.27375280857    -0.25071310997    
-0.16738939285    -0.17177045345    -0.29695540667    -0.32574671507    -0.28730630875    
-0.34081944823    -0.25979873538    
0.43123768753    0.5    0.5    0.41478178965    0.5    
0.41536299017    0.5    0.5    0.41335376528    0.5    
0.5    0.5    0.5    0.5    0.42139291763    
0.5    0.5    0.5    0.5    0.42041674256    
0.5    0.5    0.5    0.41851401329    0.5    
0.42175656557    0.5    0.41362947226    0.5    0.5    
0.41201668978    0.42008012533    0.41915145516    0.41870498657    0.5    
0.5    0.41021424532    0.40041485429    0.5    0.41023689508    
0.062286429339    0.03543991968    0.052400162046    -0.008366833925    0.14408802079    
0.23814042066    0.17829310894    0.10964553803    0.12256216665    0.10323016346    
0.3227499684    0.26090359688    0.23201529395    0.29985645413    0.33696414241    
0.32446482401    0.36509612203    0.41059892718    0.41892319918    0.39956691861    
0.13689771295    0.3438500762    0.31110551953    0.20444867015    0.3814265132    
0.43359217048    0.10476196557    0.054920803756    -0.01035601832    -0.0060248993241    
0.33910441399    0.27609691024    0.34059783816    0.35140454769    0.19246333838    
0.330745399    0.19609227777    0.3102992475    0.33765742183    0.27473658323    
0.30294573307    0.30080643296    0.40151166916    0.074347198009    0.18371337652    
0.3508810997    0.28757414222    
0.051785557382    0.0    0.050545338865    -0.032960736244    0.1    
0.13770129581    0.2    0.14862009545    0.23931408161    0.24661425142    
0.3    -0.047472416525    -0.1    0.13365839796    0.094432473183    
0.098190204268    0.051448817209    0.19445884755    -0.030692917766    0.0082965008914    
0.0041336029887    0.052106558525    0.29396832588    0.29022592306    0.24088832304    
0.050956383348    0.14697752401    0.18341563642    0.24184870647    0.16142068769    
0.1786558032    -0.044784933329    0.14708971977    0.29500412941    -0.027797897199    
0.053796234592    -0.0060922489502    -0.015183720738    -0.069859825877    0.11474210024    
0.027511351907    0.071239039302    0.13123981904    0.054965942991    0.06041772808    
0.11208199456    0.109153606    0.011390452273    -0.053757724536    0.1741451472    
-0.064327743078    -0.058958418667    -0.00077733772422    0.11385296285    0.054101004202    
0.17537589605    0.21264617145    -0.13378831934    -0.11214611679    0.080442197621    
-0.086583822966    0.0031874238048    -0.062851265073    0.017654163763    0.090965643525    
0.061294995248    0.09305486083    -0.056695908308    -0.042062774301    -0.047235887267    
0.0028856392018    0.033728931099    0.26864483953    0.11417367309    0.14994361997    
0.16062226892    -0.045862741768    -0.004823774565    0.066082030535    0.12395049632    
0.20952318609    0.079299814999    0.20654162765    0.01258007437    0.051262147725    
0.033360939473    0.016605032608    
178.238325318    239.026005269    128.3223583    204.635794493    201.362604011    
273.193045161    219.581108083    219.892806346    146.978350884    195.529451772    
205.206492736    192.918403608    251.124406244    188.925477012    154.196531798    
200.125837411    36.6632941873    30.8431119086    58.2886303062    59.0269577613    
69.414607678    66.0824719412    56.9182921707    24.8567184704    28.8139792281    
54.6459220073    51.7845110972    65.2803210093    37.2697325083    86.2406083813    
167.359159689    55.3736543116    86.3884328128    29.416230775    199.142157856    
246.155952533    88.5367273631    58.2944676114    141.925901326    33.5762783019    
91.6014568508    76.9452187351    134.509217289    74.6643914319    89.9927778126    
55.5864309803    32.4983732951    47.8838578855    32.918992241    34.8761769634    
76.7069056846    60.488233992    61.0852790817    150.780068682    216.295869825    
185.182309329    111.458677241    68.8016614332    158.88983174    45.1862476687    
152.287583571    152.878231647    92.5129277575    53.826174527    124.641498534    
155.680393223    211.167646445    39.4307641801    26.6593389511    30.8596868324    
68.1559963559    391.617428391    394.800102029    393.162189861    382.170364324    
367.232786944    371.319364236    358.638571059    375.591545506    384.859572533    
387.631347135    379.182601454    381.262907829    362.53011714    372.841575206    
373.313974826    349.812792084    350.213080853    359.89804198    316.552784978    
346.334870091    240.346345519    209.667917898    172.976597685    298.52527242    
351.191175101    303.843369949    245.905672625    109.063815007    67.4458499138    
135.736960069    84.1844052432    89.4148019006    44.237700855    33.3866414446    
35.8769802019    140.558009176    65.2193897783    124.701223925    362.284378566    
371.870266303    349.557099542    299.386317228    336.547444332    263.522004499    
241.93063205    335.850094419    261.819681122    218.688570801    202.061120478    
313.809020976    247.94508741    332.600595929    357.214991508    373.590545747    
386.348665923    369.29664989    374.639275532    341.891787292    382.877726106    
339.174375833    302.800997353    351.348527227    321.125465408    373.646166101    
335.591478896    317.821011546    263.266755889    363.563411864    231.505539087    
310.995127978    248.900510022    241.414108691    226.817121373    371.622787161    
197.835353132    152.669672182    311.056917096    115.419831715    36.7485095546    
62.6085734594    92.6219498708    20.0412387881    101.553486709    11.2070639224    
15.6548723071    58.0067744969    40.0812412572    104.477036617    60.2815467131    
111.860567078    339.138233558    357.207188403    346.720711647    368.031801833    
387.036009284    369.810403201    382.439917026    394.50680612    359.262303701    
131.689020369    137.311629905    242.384321503    275.351803253    302.162417694    
311.108791968    307.613426862    317.642498244    273.257552428    127.185038975    
145.355530447    127.71424578    329.133357096    279.383538373    309.75028507    
220.77939164    204.755152081    261.836628665    307.007273781    329.527625413    
342.535437935    156.035573394    152.110832646    167.342361288    160.922756231    
184.166479467    232.323681899    231.589419625    267.564900484    222.084278707    
164.143792141    180.791933261    149.126619309    178.409494587    195.4477012    
161.350216201    190.080612067    184.863000645    152.431777329    165.509553102    
164.676897964    187.025562452    153.281098775    179.202240393    45.3510045326    
88.6822808089    111.131050761    166.264031155    227.476220056    204.482003714    
183.432415806    332.484150138    338.351865174    277.486557494    260.99202259    
276.678063874    244.327895822    222.79215102    187.379180014    181.502641026    
178.86819479    213.228435262    209.239515133    
0.483248506519    0.461741738148    0.477836456927    0.441345308577    0.453104383367    
0.456528724517    0.478470411352    0.449686054177    0.477354561733    0.477860990873    
0.456799172928    0.44394363112    0.424806312615    0.478287032873    0.45672604821    
0.457660554502    0.480037629807    0.479983305135    0.460559061976    0.454003204216    
0.454984475463    0.460119313191    0.460279787543    0.479696202966    0.479676544637    
0.453414864004    0.453721774688    0.45623816344    0.47939776278    0.458120389247    
0.438620631461    0.480026333049    0.460504774468    0.480408156849    0.434706615021    
0.402971203389    0.460201961846    0.480019206195    0.450859856275    0.479715441656    
0.440656272223    0.441492439125    0.403545770706    0.435045431593    0.440639256724    
0.456225540352    0.477883656141    0.460478897916    0.477391938788    0.477234919637    
0.431467123059    0.45477296159    0.451469998294    0.40353000299    0.400961458321    
0.438379402941    0.457482613242    0.479346512611    0.445257961386    0.479706527523    
0.43182470996    0.403040681123    0.436364116011    0.479180437552    0.435214790133    
0.427219376284    0.424861499235    0.459367254975    0.474121151365    0.474065557963    
0.430661825134    0.0736208467281    0.0360057444582    0.0204822530081    0.0883627074709    
0.158430634414    0.117020414726    0.107829258815    0.113107817896    0.087591680972    
0.110332112033    0.145342848743    0.0649198610922    0.104669151305    0.276948044689    
0.300345231756    0.334574701523    0.301280003816    0.24465308089    0.371183578962    
0.379734348166    0.416408825648    0.416341925231    0.401402850779    0.436667513919    
0.390983629117    0.375186173427    0.39877631621    0.391116714761    0.433508537931    
0.392205766962    0.433089875604    0.434075915197    0.45879425812    0.473489480573    
0.473299679754    0.380052374645    0.437491321258    0.39434271065    0.354534185696    
0.308253076462    0.289926673626    0.338603272285    0.261823877065    0.358976154918    
0.333346488763    0.380780404161    0.298045237551    0.356444988384    0.385193567097    
0.373428814714    0.394996896266    0.198651145454    0.207074959892    0.17357122749    
0.174410283724    0.144108983758    0.106739372497    0.162269796091    0.204651673729    
0.271971404915    0.271854924068    0.23191039437    0.240734194338    0.191675070958    
0.16846929513    0.339334049181    0.34353612062    0.390862673314    0.374664683279    
0.342891241779    0.36597422324    0.353600065327    0.362951160238    0.363325916476    
0.392614528888    0.467862798436    0.431923847454    0.384643048743    0.461474407364    
0.439267215889    0.402953755202    0.483335095673    0.400291821599    0.484555592773    
0.484040919467    0.438375643489    0.460745053736    0.400506337151    0.436930149363    
0.387613787186    0.14542647065    0.0805638279748    0.144491089795    0.0666634827382    
0.0364320546579    0.0392090523557    0.0177250159634    0.0586497457717    0.0936958052638    
0.363020822258    0.375538321775    0.31944768238    0.261405174742    0.234745250918    
0.280774182317    0.236748426345    0.210243125376    0.316364436995    0.373457272903    
0.36590797887    0.371703390375    0.165159846506    0.272473319785    0.208447834641    
0.351051144719    0.378529737073    0.265772864253    0.214889899288    0.172861470848    
0.130844780506    0.338301417357    0.383390213097    0.348881596023    0.344791548126    
0.341672981265    0.304243247976    0.293089038308    0.267855460289    0.323415978844    
0.374793828163    0.36082096774    0.391345313276    0.334795745481    0.331736306043    
0.362201560151    0.357902407161    0.324722726909    0.341093585156    0.337878595928    
0.352324075681    0.31623221285    0.393108451866    0.379245700927    0.474524749714    
0.434405140422    0.436108401285    0.380780328839    0.359441113767    0.382585397952    
0.395335293243    0.142400737536    0.120007197799    0.232700603457    0.253934778938    
0.233670674159    0.314652844458    0.307739236863    0.343631080807    0.37434176115    
0.350731906755    0.313313873759    0.299538035899    
1     2     3     5     
3     2     1     4     
4     3     2     12     
4     1     3     26     
1     5     3     65     
6     7     8     9     
8     7     6     5     
6     8     5     65     
7     9     10     8     
10     9     7     11     
11     10     9     34     
8     9     10     57     
6     9     8     57     
4     12     2     13     
3     12     4     26     
13     4     12     59     
14     15     16     18     
16     15     14     17     
17     16     15     26     
17     15     14     60     
14     15     18     83     
16     18     15     33     
17     20     21     26     
21     20     17     19     
19     20     17     22     
22     20     17     60     
19     20     22     38     
18     24     25     83     
25     24     18     23     
23     24     18     34     
4     26     12     32     
3     12     26     21     
12     26     21     32     
3     21     26     16     
3     26     1     65     
4     1     26     62     
16     26     8     33     
8     26     16     3     
3     8     26     65     
21     26     16     17     
15     26     16     33     
17     26     15     20     
15     20     26     86     
15     17     20     60     
21     26     20     32     
30     29     28     31     
28     29     30     27     
30     28     27     66     
30     25     31     14     
31     25     30     29     
30     31     28     60     
14     25     31     83     
14     31     30     60     
20     32     26     86     
4     26     32     62     
4     32     12     59     
18     33     10     34     
10     33     18     8     
8     10     33     57     
8     33     18     16     
8     33     26     65     
26     33     15     86     
15     33     18     83     
34     10     18     23     
33     34     18     83     
10     34     33     57     
9     34     10     57     
35     38     22     66     
22     38     35     39     
39     22     38     19     
22     38     20     60     
41     42     43     45     
43     42     41     44     
44     42     41     70     
45     41     42     48     
45     48     47     64     
47     48     45     42     
42     47     48     67     
42     45     47     50     
41     48     49     68     
49     48     41     45     
45     49     48     64     
42     48     41     68     
42     50     47     67     
46     54     55     53     
55     54     46     56     
56     55     54     65     
53     54     55     62     
46     54     53     64     
56     57     6     65     
6     57     56     9     
6     57     8     65     
8     57     33     65     
33     57     34     83     
4     58     59     13     
59     58     4     51     
4     59     51     62     
4     32     59     62     
20     60     38     71     
22     38     60     66     
31     60     15     79     
15     60     31     14     
14     31     15     83     
22     60     30     66     
30     60     22     14     
14     60     22     17     
28     60     31     81     
30     60     28     66     
15     60     20     79     
51     62     55     4     
55     62     51     53     
53     62     51     52     
52     62     51     59     
53     62     52     64     
52     62     59     32     
32     52     62     63     
4     62     55     1     
52     62     63     72     
32     63     62     86     
26     32     62     86     
55     1     62     65     
26     62     1     65     
61     64     52     77     
52     64     61     53     
53     64     61     49     
49     53     64     45     
49     64     61     48     
48     61     49     68     
48     64     61     77     
53     64     45     46     
62     64     53     54     
52     64     62     72     
54     64     46     47     
47     54     64     72     
47     64     46     45     
47     64     48     85     
55     65     62     54     
54     65     62     86     
55     1     65     6     
62     65     26     86     
54     65     57     56     
57     65     54     33     
33     54     57     76     
33     65     54     86     
56     65     6     55     
26     65     33     86     
3     8     65     5     
5     65     1     6     
38     60     66     78     
27     66     40     36     
40     66     27     28     
28     40     66     74     
27     30     66     22     
28     66     60     74     
22     66     27     36     
36     22     66     35     
36     66     40     37     
37     36     66     35     
37     66     40     74     
35     66     37     38     
38     66     37     78     
48     67     47     85     
42     67     48     84     
47     67     50     75     
48     68     42     84     
41     42     68     70     
42     68     69     84     
69     68     42     70     
68     49     41     70     
48     61     68     84     
38     71     60     78     
20     60     71     79     
63     72     62     86     
52     72     63     77     
64     72     52     77     
62     72     64     54     
47     54     72     75     
47     72     64     85     
62     72     54     86     
66     74     37     78     
60     28     74     81     
60     74     66     78     
47     67     75     85     
72     75     54     76     
47     75     72     85     
33     54     76     86     
33     76     57     83     
63     77     72     87     
64     72     77     85     
64     77     48     85     
61     48     77     84     
60     78     71     82     
15     79     20     86     
20     79     71     87     
60     71     79     82     
76     79     80     31     
80     79     76     72     
72     80     79     87     
72     76     80     75     
72     79     76     86     
76     79     31     15     
15     76     79     86     
15     31     76     83     
80     31     79     82     
80     76     31     81     
60     79     31     82     
31     81     76     83     
80     81     31     82     
78     82     60     74     
60     74     82     81     
60     81     82     31     
71     79     82     87     
15     83     76     33     
33     76     15     86     
18     14     83     25     
31     83     25     24     
24     83     18     34     
24     31     83     81     
57     83     76     73     
57     83     73     34     
34     83     73     24     
77     84     48     85     
48     84     67     85     
72     85     75     80     
80     72     85     87     
72     77     85     87     
76     86     54     72     
63     72     86     87     
63     86     20     87     
20     86     63     32     
20     86     79     87     
79     86     72     87     
80     82     79     87     

