Title = " tecplot file for 2D Cavity problem " 
variables = "x", "y", "z", "velX", "cellCentroidY" 
Zone T = "nmesh0" N = 85 E = 233 DATAPACKING = BLOCK, VARLOCATION = ([4-5]=CELLCENTERED), ZONETYPE=FETETRAHEDRON
0.5    0.41389108349    0.5    0.5    0.5    
0.40988493213    0.5    0.5    0.40981870864    0.5    
0.39867108893    0.5    0.5    0.5    0.5    
0.42305210233    0.5    0.5    0.41605117917    0.5    
0.5    0.42351570725    0.41966915131    0.5    0.41829329729    
0.5    0.5    0.41874924302    0.5    0.41797992587    
0.5    0.40572524071    0.5    0.41678509116    0.4073561728    
0.17285842098    0.27771398425    0.22454390791    0.28258649104    0.32601154681    
0.22567240675    0.19867786765    0.32094819056    0.25836831331    0.42067414522    
0.35672467947    0.41278079152    0.5    0.40442427993    0.34714686871    
0.3087477088    0.13125571609    0.16530394554    0.32450819016    0.3855291307    
0.35243031383    0.31797783875    0.34692415595    0.24450056255    0.27569195628    
0.32169282436    0.12609431148    0.33483195305    0.27065211535    0.24962322414    
0.32283324003    0.33799776435    0.23129664361    0.34120205045    0.337431252    
0.30317646265    0.20027701557    0.26247379184    0.27890083194    0.10883488506    
0.19725997746    0.15706507862    0.21100731194    0.15591920912    0.2590701282    
0.15041914582    0.23649072647    0.23062975705    0.2118780762    0.35791161656    

-0.41819843412    -0.5    -0.5    -0.5    -0.41564889515    
-0.5    -0.5    -0.4153699218    -0.5    -0.5    
-0.5    -0.5    -0.41820653554    -0.33938811823    -0.25331445445    
-0.28728654981    -0.33336120628    -0.16364435619    -0.19110110402    -0.24614081152    
-0.16351815207    -0.36506685615    -0.38906952739    -0.32786795189    -0.38847386837    
-0.3318451791    -0.083182727769    -0.051343418658    -0.066395926384    -0.30245664716    
-0.23140587141    -0.17034709454    -0.11599105206    -0.38629558682    -0.29703965783    
-0.5    -0.41328206658    -0.5    -0.5    -0.5    
-0.5    -0.40398362279    -0.5    -0.40840107203    -0.19487705827    
-0.41352432966    -0.14694330096    -0.17245734639    -0.080692149699    -0.42989856005    
-0.38929644227    -0.40172451735    -0.40022647381    -0.30754390359    -0.22287839651    
-0.4389718473    -0.5    -0.36383622885    -0.33944323659    -0.27347847819    
-0.24574446678    -0.2963745296    -0.12296640873    -0.032839149237    -0.29175436497    
-0.10706669092    -0.31759625673    -0.28438603878    -0.21549329162    -0.16341674328    
-0.19264043868    -0.20518957078    -0.12153756618    -0.35251045227    -0.31939277053    
-0.3455041945    -0.28313827515    -0.16312615573    -0.22678218782    -0.23009064794    
-0.18636290729    -0.1328112036    -0.23815740645    -0.1397421658    -0.43918856978    

-0.049503663441    -0.033012205004    0.0    -0.1    -0.14785542545    
-0.13389429422    -0.2    -0.24638476548    -0.23459178214    -0.3    
-0.33841613399    -0.4    -0.34429606689    -0.00044234021313    -0.038819310195    
0.0014200225705    -0.095113427316    -0.16500223786    -0.12508416176    -0.13572168125    
-0.07452854626    0.047403976321    -0.09749083966    -0.19413069007    -0.2948076725    
-0.2937422056    -0.019241548604    -0.069024145603    -0.1328558622    -0.14165526628    
-0.24095710882    -0.21453258395    -0.23763839964    -0.19612362981    -0.2429433316    
-0.3290328843    -0.27435973287    -0.23021076868    -0.33128374651    -0.26158470247    
-0.11262059943    -0.16715888679    -0.064562959288    -0.059405729175    -0.028198638931    
-0.017282199115    -0.3047901094    -0.32683066421    -0.1657396853    -0.32568281889    
-0.17042070627    -0.087718769908    -0.27613860369    -0.065370410681    -0.27817156911    
-0.11588711292    -0.17153769265    -0.24706466496    -0.22211249173    -0.28504756093    
-0.17986905575    -0.16345860064    -0.088732130826    -0.10657566041    -0.011472829618    
-0.22623543441    -0.1450894922    -0.12454099208    -0.073836684227    -0.16383069754    
-0.25207874179    -0.34361302853    -0.32863172889    -0.109052293    -0.082985728979    
-0.070507861674    -0.022462427616    -0.052825815976    -0.10202209651    -0.067244969308    
-0.20166486502    -0.23739098012    -0.20834755898    -0.1453962326    -0.21702951193    

399.466622736    399.843763383    399.601253903    399.841818102    399.562800137    
399.700969711    399.876980583    399.646938913    399.742157567    399.915679155    
397.505170131    398.893613285    398.25332366    396.660299151    397.954157599    
398.093867962    394.914766155    396.908567103    396.560373816    397.084209243    
398.033781611    398.64370527    399.243826978    398.430899523    399.537241654    
399.146090875    398.855949526    399.722918512    399.673730082    399.224416908    
399.40770139    399.076229395    398.689569419    397.395352975    399.67286991    
399.812415537    399.729723358    399.401289696    399.445486475    399.254324802    
393.972596123    396.708853945    393.627565334    395.635594175    398.85378354    
399.223605931    398.597453046    398.252794585    396.156807107    395.834518737    
395.889264422    398.145276296    397.156503671    395.468917475    397.986034291    
397.045390948    398.050282528    393.316979571    396.586984818    394.144257246    
397.893706594    396.810196813    399.47607099    399.65678661    398.793340472    
398.610063241    399.763335205    399.00337034    398.644017246    399.629013229    
399.308423155    397.741112968    396.352629978    399.114642418    394.456276806    
396.434011904    398.2469604    399.216967517    399.388315258    398.886659085    
399.102584954    388.922576277    392.255856685    392.392205383    393.844039605    
393.20164107    395.983602304    398.573674758    398.389560149    397.574109322    
396.403410802    397.416918511    396.670337434    389.42117394    387.613081384    
399.74969857    399.684930687    398.765265148    399.28714567    399.043300472    
397.461239364    396.745845744    397.939415455    396.518137763    395.370457492    
395.857631333    397.191916787    396.868062725    398.128522662    394.586033974    
395.443046891    393.687396114    395.527992875    396.333385498    393.78231397    
391.776096146    396.912358911    398.761946034    399.372842094    399.738128623    
399.613750047    399.181915095    398.876710258    397.75066064    398.269186266    
395.919918844    395.965145981    398.491900162    396.066059822    398.546037014    
398.751002627    396.142888765    398.154719735    395.779274941    397.217830161    
394.690814292    392.720350155    394.326062553    393.516875793    391.66945549    
392.244545877    394.040305722    394.705650429    393.39397318    394.698465777    
393.717492097    391.150180841    392.052467061    390.760659632    379.322214363    
386.608121191    379.74850003    388.667269785    393.983854977    396.356836922    
391.661623562    392.89998385    397.280207503    396.817121628    395.296276409    
389.508889041    391.373922628    391.089278919    392.730070094    392.5339138    
390.842325639    389.964245033    391.761556861    389.179472976    387.398435218    
392.142700825    389.288899925    387.716587612    386.716403296    378.8597005    
384.460792382    386.579716297    389.458124114    389.824212476    389.66729606    
388.670588442    383.970932069    386.495061299    385.004180855    390.598115666    
392.506100183    395.465998198    392.132930431    390.45172296    389.129894149    
395.634853077    392.292852316    393.789122011    387.55271119    392.097500344    
390.869019111    387.285487713    387.267197728    385.615146437    386.2089268    
384.215895566    381.209182358    383.857671606    389.261385508    384.584044911    
382.324409668    382.457170681    381.459858438    379.735134186    386.778980687    
386.591388861    384.413820802    376.656791371    384.899303833    380.678783444    
384.017382928    382.447969413    383.366678325    386.107629601    384.57039605    
381.615031909    389.048449307    384.794276527    376.127949696    379.014462246    
376.606556112    398.696783851    397.777551526    399.695596198    399.770139557    
399.480688654    398.29656599    397.97625469    
-0.452386854662    -0.479368606612    -0.451067071233    -0.478698706723    -0.45093594826    
-0.451649248424    -0.47861786419    -0.449979565325    -0.452014230508    -0.479735100818    
-0.294221938925    -0.303461006358    -0.337497223406    -0.192960409799    -0.191315838862    
-0.2135280967    -0.147859820591    -0.248295841224    -0.201173602664    -0.363496408518    
-0.346899310516    -0.378046252134    -0.36990517935    -0.396221549843    -0.470477044435    
-0.45735369397    -0.431009401873    -0.430942780427    -0.389125735582    -0.424406275305    
-0.366280625265    -0.379142523488    -0.338572812906    -0.326717578435    -0.388474250021    
-0.43066101965    -0.470670794243    -0.424196617349    -0.455110210201    -0.380037407363    
-0.0921595027197    -0.0913442998473    -0.122960771712    -0.32098036064    -0.276538257365    
-0.302483461557    -0.283720834566    -0.35158021487    -0.228683368536    -0.237802972297    
-0.26064517516    -0.288816169156    -0.236798324245    -0.131894121371    -0.17112747356    
-0.166723061497    -0.203268686643    -0.229008023176    -0.248990063807    -0.150220133825    
-0.328266809645    -0.350151987131    -0.365167700756    -0.386205908881    -0.335941692141    
-0.350427885839    -0.429485648358    -0.428176389908    -0.428488747286    -0.469626496658    
-0.456968627459    -0.358687543859    -0.326405737102    -0.296549710866    -0.252576278905    
-0.230577720168    -0.453296534201    -0.47812019072    -0.477826987252    -0.462745683684    
-0.460415677938    -0.138571986677    -0.146823745931    -0.121264652235    -0.252733202984    
-0.228220120514    -0.348305824428    -0.436476039011    -0.166866009645    -0.194972519444    
-0.193640939098    -0.105932417162    -0.118185796054    -0.150238044759    -0.112357391157    
-0.482806171101    -0.482384348981    -0.445150924122    -0.466457434148    -0.439424339245    
-0.435393435939    -0.425469469132    -0.448913020182    -0.428643834257    -0.390323504698    
-0.387750859966    -0.426937727248    -0.429267272214    -0.437065546208    -0.391206419478    
-0.390236527337    -0.278418498167    -0.330646535811    -0.385108218024    -0.234559430875    
-0.182253339118    -0.381709150798    -0.441332590016    -0.485273438705    -0.485917506261    
-0.485298839385    -0.469477063407    -0.462771701994    -0.439420727472    -0.461149062034    
-0.390817204054    -0.363847885942    -0.457490314787    -0.399210743063    -0.442095365521    
-0.470909032232    -0.340376843931    -0.394513288601    -0.376400494391    -0.401676257319    
-0.351352305543    -0.358548068746    -0.371288900061    -0.260119817334    -0.208121394725    
-0.235182870614    -0.293750080342    -0.290025088207    -0.305120434947    -0.306178983833    
-0.317585501087    -0.274703811522    -0.239900602668    -0.193838723493    -0.0705728394259    
-0.138609390861    -0.0970742940621    -0.180069189949    -0.348822245186    -0.363975573115    
-0.297605441109    -0.291761450447    -0.394036940206    -0.383092993723    -0.357043569229    
-0.290473153832    -0.33047303406    -0.33341478352    -0.345497915704    -0.323082400746    
-0.287812366698    -0.278041576215    -0.314122639647    -0.267138793584    -0.173518035568    
-0.26831161444    -0.204798779373    -0.158822364019    -0.129373848517    -0.0929691926198    
-0.182569861128    -0.213964766213    -0.193281170214    -0.238042488986    -0.154263038704    
-0.141583365059    -0.149537874434    -0.209526595346    -0.138288136069    -0.307865793057    
-0.339508071918    -0.379223437765    -0.34821974323    -0.317938033509    -0.279618894623    
-0.37529483777    -0.348002897127    -0.378218754841    -0.288768863936    -0.360467556162    
-0.34086499761    -0.296345170487    -0.300103125191    -0.273059564215    -0.284051022453    
-0.256397535074    -0.165315387875    -0.194356270108    -0.250658956504    -0.222024466272    
-0.241989834099    -0.217902145321    -0.227001321692    -0.190436065207    -0.164533649888    
-0.192954703095    -0.181495138458    -0.106455014614    -0.190791587038    -0.174534013994    
-0.194444194289    -0.169491710454    -0.220544704972    -0.261241319083    -0.237579283489    
-0.19849360907    -0.226256428104    -0.225057300749    -0.115618530529    -0.162507954688    
-0.11380366779    -0.457407259541    -0.413185458473    -0.485487343766    -0.485516990421    
-0.485159859647    -0.406147427615    -0.412145259465    
1     2     4     23     
4     2     1     3     
5     6     7     34     
7     6     5     4     
5     4     6     23     
8     9     10     25     
10     9     8     7     
8     7     9     34     
10     11     13     25     
13     11     10     12     
15     16     17     30     
17     16     15     14     
14     17     16     23     
18     19     20     32     
20     19     18     21     
21     20     19     15     
21     19     18     49     
15     20     19     30     
15     19     21     45     
22     23     16     46     
16     23     22     14     
14     23     22     1     
1     14     23     17     
1     23     22     46     
4     23     2     6     
6     23     2     56     
1     2     23     46     
1     23     4     5     
1     23     5     17     
5     23     6     34     
17     23     5     24     
24     23     5     34     
17     23     24     30     
16     23     17     30     
8     25     13     26     
13     25     8     10     
10     11     25     9     
8     9     25     34     
11     25     9     50     
8     25     26     34     
21     29     28     49     
28     29     21     27     
21     28     27     45     
23     30     16     54     
20     30     24     31     
24     30     20     17     
17     30     20     15     
24     30     23     34     
19     30     20     32     
15     30     19     45     
16     30     15     45     
31     30     24     35     
20     30     31     32     
18     32     33     49     
33     32     18     31     
31     33     32     47     
31     32     18     20     
30     32     19     61     
31     32     30     35     
19     32     18     49     
30     34     24     35     
23     34     30     67     
8     34     26     24     
24     8     34     5     
24     34     26     35     
26     34     25     35     
5     8     34     7     
25     34     9     85     
6     34     23     56     
7     34     6     9     
9     34     6     85     
25     35     34     58     
34     35     30     67     
24     35     26     31     
30     35     32     61     
31     32     35     55     
36     37     38     53     
38     37     36     39     
39     38     37     40     
38     37     40     85     
39     40     37     50     
28     45     19     63     
19     45     28     21     
21     28     19     49     
16     30     45     69     
19     45     30     69     
16     46     23     54     
23     46     2     56     
33     47     31     48     
48     47     31     55     
31     47     32     55     
49     33     18     29     
18     49     29     21     
19     32     49     70     
19     49     28     63     
40     50     39     11     
11     40     50     9     
37     50     40     85     
40     50     9     85     
9     50     25     85     
44     51     41     56     
41     51     44     42     
42     41     51     38     
42     44     41     52     
42     51     44     74     
37     51     42     59     
42     51     37     38     
38     37     42     53     
38     51     37     85     
42     44     52     76     
42     53     37     59     
16     54     30     69     
23     30     54     67     
23     54     46     56     
32     35     55     61     
32     55     47     71     
23     56     34     67     
6     34     56     85     
57     56     43     41     
43     56     57     6     
6     43     56     2     
6     56     57     85     
46     56     43     2     
43     56     46     44     
44     43     56     41     
44     56     46     54     
23     54     56     67     
41     56     51     57     
44     51     56     74     
57     56     51     85     
41     57     51     38     
34     58     35     67     
25     58     34     85     
59     37     51     58     
51     58     37     85     
51     59     58     67     
53     59     42     62     
42     59     51     74     
55     61     35     60     
32     61     55     71     
55     61     60     71     
35     60     61     58     
30     35     61     67     
60     61     58     59     
35     58     61     67     
59     61     58     67     
60     61     59     83     
19     30     61     69     
19     61     32     70     
28     63     49     64     
19     49     63     70     
64     63     49     70     
19     63     45     69     
59     67     51     74     
58     51     67     34     
59     61     67     68     
30     67     61     54     
51     34     58     85     
51     67     34     56     
56     67     54     74     
59     68     62     83     
62     68     59     42     
42     62     68     76     
42     68     59     74     
59     68     67     74     
61     67     68     54     
61     68     59     83     
54     67     68     74     
54     68     61     80     
19     63     69     70     
30     69     54     61     
19     69     61     70     
66     70     32     71     
32     70     66     49     
49     70     66     64     
63     69     70     80     
61     70     69     80     
32     70     61     71     
60     71     61     83     
32     71     47     66     
66     71     47     73     
70     71     66     82     
61     71     70     83     
71     73     66     82     
54     74     68     65     
54     74     65     44     
44     54     74     56     
44     74     65     76     
65     74     68     76     
54     65     68     80     
51     74     67     56     
42     68     74     76     
44     42     74     76     
62     68     76     79     
62     76     42     52     
62     76     52     75     
62     76     75     79     
65     76     68     77     
77     68     65     80     
77     76     68     79     
77     79     68     80     
63     80     70     84     
70     80     61     84     
69     61     80     54     
61     80     68     84     
77     80     65     78     
68     80     79     84     
77     79     80     78     
78     79     80     84     
73     82     71     72     
72     82     71     83     
71     82     70     83     
66     70     82     64     
82     83     72     81     
81     82     83     84     
70     61     83     84     
70     83     82     84     
79     83     68     84     
68     83     79     62     
62     83     79     81     
81     83     79     84     
71     83     60     72     
61     68     83     84     
82     70     84     64     
78     84     80     63     
63     84     70     64     
51     38     57     85     
34     51     56     85     
6     85     57     9     
9     85     57     40     
40     85     57     38     
25     58     85     50     
58     85     50     37     

