Title = " tecplot file for 2D Cavity problem " 
variables = "x", "y", "z", "velX", "cellCentroidY" 
Zone T = "nmesh0" N = 93 E = 233 DATAPACKING = BLOCK, VARLOCATION = ([4-5]=CELLCENTERED),  ZONETYPE=FETETRAHEDRON 
0.5    0.40988493213    0.5    0.5    0.3402389744    
0.4    0.33977021174    0.3    0.42808287283    0.5    
0.40981870864    0.5    0.39867108893    0.5    0.5    
0.5    0.5    0.4122946649    0.5    0.5    
0.5    0.41138953425    0.5    0.5    0.5    
0.39948298875    0.5    0.42833647092    0.5    0.41225287318    
0.5    0.42213836312    0.41829329729    0.5    0.5    
0.41797992587    0.5    0.41678509116    0.41768452525    0.5    
0.32678941768    0.4073561728    0.17285842098    0.27771398425    0.22454390791    
0.28258649104    0.32601154681    0.28691256046    0.23838104958    0.23887904452    
0.28398631369    0.33723041415    0.32822196975    0.2280630121    0.2927288115    
0.32190140742    0.23332722535    0.15242388821    0.17253126204    0.29400601983    
0.42327445745    0.4168253839    0.41278079152    0.5    0.34714686871    
0.3087477088    0.42512446642    0.22574973106    0.3855291307    0.40572524071    
0.35243031383    0.31797783875    0.34692415595    0.37964245677    0.24450056255    
0.33264538646    0.27569195628    0.32169282436    0.22912324965    0.24030808209    
0.23749235272    0.13184266684    0.34551140666    0.32975903153    0.20027701557    
0.1760070771    0.28541332483    0.30317646265    0.26247379184    0.23649072647    
0.23062975705    0.17542864382    0.35791161656    
-0.41564889515    -0.5    -0.5    -0.5    -0.41762424381    
-0.5    -0.5    -0.5    -0.5    -0.4153699218    
-0.5    -0.5    -0.5    -0.5    -0.41820653554    
-0.43047637182    -0.5    -0.13484758004    -0.13423285275    -0.2    
-0.1    -0.2351196651    -0.23500892398    -0.3    -0.33893131854    
-0.33857438087    -0.4    -0.43015589406    -0.26233258347    -0.22326628864    
-0.17245734639    -0.39587140083    -0.38847386837    -0.3318451791    -0.23140587141    
-0.30245664716    -0.32786795189    -0.38629558682    -0.077823087573    -0.065782109139    
-0.066835816451    -0.29703965783    -0.5    -0.41328206658    -0.5    
-0.5    -0.5    -0.41540122032    -0.5    -0.41472343476    
-0.33099918884    -0.31047663093    -0.26185631912    -0.22973869136    -0.22138518095    
-0.17256053992    -0.11397877408    -0.15670896114    -0.10838096589    -0.11779171228    
-0.30768674612    -0.15878117085    -0.14694330096    -0.11599105206    -0.42989856005    
-0.38929644227    -0.28911292553    -0.30981233716    -0.22287839651    -0.17034709454    
-0.4389718473    -0.5    -0.36383622885    -0.22600293159    -0.33944323659    
-0.25078937411    -0.27347847819    -0.24574446678    -0.34696641564    -0.0063659954075    
-0.054580211639    -0.054455167323    -0.17046000063    -0.061531320214    -0.20518957078    
-0.11558044702    -0.30925294757    -0.19264043868    -0.12153756618    -0.1328112036    
-0.23815740645    -0.2401958853    -0.43918856978    
-0.14785542545    -0.13389429422    -0.2    -0.1    -0.5    
-0.5    -0.41768659873    -0.5    -0.43009226427    -0.24638476548    
-0.23459178214    -0.3    -0.33841613399    -0.4    -0.34429606689    
-0.43002168133    -0.5    -0.5    -0.41348763454    -0.5    
-0.5    -0.5    -0.41421850615    -0.5    -0.40331670293    
-0.5    -0.5    -0.5    -0.33538962859    -0.3588129282    
-0.32683066421    -0.392544806    -0.2948076725    -0.2937422056    -0.24095710882    
-0.14165526628    -0.19413069007    -0.19612362981    -0.38546550274    -0.32669339602    
-0.5    -0.2429433316    -0.3290328843    -0.27435973287    -0.23021076868    
-0.33128374651    -0.26158470247    -0.38807472587    -0.41525380821    -0.5    
-0.5    -0.40549471974    -0.5    -0.5    -0.41411885619    
-0.5    -0.5    -0.5    -0.40393692255    -0.41329279542    
-0.3322545588    -0.4167073667    -0.3047901094    -0.23763839964    -0.32568281889    
-0.17042070627    -0.42588192225    -0.40268585086    -0.27817156911    -0.21453258395    
-0.11588711292    -0.17153769265    -0.24706466496    -0.42947751284    -0.22211249173    
-0.34454509616    -0.28504756093    -0.17986905575    -0.31761115789    -0.5    
-0.41262426972    -0.5    -0.38502970338    -0.33554247022    -0.34361302853    
-0.30286681652    -0.35071828961    -0.25207874179    -0.32863172889    -0.23739098012    
-0.20834755898    -0.42512151599    -0.21702951193    
399.6012539    399.841818101    399.902299991    399.935437018    399.718070974    
399.734513283    399.929282319    399.700969715    399.876980584    399.646938913    
399.826347418    399.915679156    399.74215757    399.963172908    399.98104093    
399.904197299    399.508614454    399.726741789    399.696735859    399.84692572    
399.47895528    399.804651607    399.912687805    399.811740273    399.980434272    
399.90005296    399.984448915    399.892644196    399.81328386    397.981090241    
398.994549697    398.606176649    398.919265302    399.485133335    399.778768185    
399.87053121    399.550035498    399.767863499    399.861305592    399.418437337    
399.902547857    399.864665209    399.90765189    399.503536526    399.575504593    
399.553725742    399.343819644    399.28589549    399.672869915    399.81241554    
399.729723361    399.401289701    399.44548648    399.342414821    399.254324812    
399.476070995    399.65678661    398.793340483    398.610063258    399.763335204    
399.003370349    399.629013227    399.308423153    397.286173269    398.756116789    
398.256776644    397.741112995    398.502328145    399.114642426    398.932782536    
398.14527631    398.601211619    397.940567113    399.388315258    399.216967519    
398.886659078    399.102584954    399.423017508    399.677374402    399.794849796    
399.188608802    399.336796884    398.856084989    399.435905897    399.707053391    
399.150182077    399.265164653    399.557736369    398.648171479    399.450943722    
398.433865792    399.265193113    398.547755688    398.316639068    399.084184279    
399.177731761    397.978210007    398.184177158    398.437023624    398.480591895    
396.954144743    397.005112464    391.754504962    394.461526302    395.242595929    
393.943483623    398.280933413    398.447918897    396.173863186    396.444510971    
397.647521015    396.962367365    399.666335324    398.694518188    399.568482779    
399.259236816    399.272084998    397.593169773    397.696892772    398.669528809    
396.859005957    399.226691655    397.090137158    399.6344794    398.534232286    
397.189730107    397.149299272    399.165690897    399.628570017    399.106884261    
395.868260741    397.116281065    394.996316128    398.239543785    398.389560173    
397.57410936    398.350913302    397.816045734    397.671065878    398.740269762    
399.766632266    399.749698571    399.684930689    398.765265147    399.287145672    
399.043300481    397.98899421    397.98353755    397.242723104    398.582067683    
398.723435144    399.58397779    397.698179495    399.837426392    399.636142949    
399.850755735    399.237260629    398.743245872    399.190719722    397.036411132    
396.56000723    396.54767991    396.225419995    398.253672553    394.860651163    
398.296566005    397.221571326    396.159899839    398.154719753    399.300794232    
398.813172028    397.26026705    396.834140968    397.110725227    396.903053486    
395.329279133    395.779274929    397.217830153    394.393774031    392.68865335    
393.516875883    395.02213411    396.426289666    394.040305792    396.970825561    
394.930876643    396.156588006    395.875553179    396.103261335    393.782314035    
391.669455576    392.244545987    393.393973237    391.150180939    396.060562021    
397.119955106    397.5208113    388.881167736    392.370141849    392.713045249    
392.44180568    397.578825596    392.572604541    395.307394952    392.924552967    
394.34878044    394.58589061    393.56356247    391.801770172    396.98284021    
397.976254695    389.824212598    390.824319592    391.584695438    390.597705278    
391.060890044    389.048449474    386.778980865    391.201304109    384.395817917    
386.905127489    386.591389044    393.088042092    398.373150354    396.182132259    
397.280207507    397.777551519    398.761946023    399.181915086    399.695596196    
399.770139556    399.480688646    398.128522643    
-0.451067071233    -0.478698706723    -0.477797868164    -0.479105723317    -0.456612588172    
-0.450797080529    -0.460843690127    -0.451649248424    -0.47861786419    -0.449979565325    
-0.45479474739    -0.479735100818    -0.452014230508    -0.465163085486    -0.482657454189    
-0.45546346289    -0.157603418582    -0.143171380273    -0.264495507959    -0.243403505156    
-0.206748184261    -0.31717244335    -0.344882061098    -0.368268577131    -0.441714752809    
-0.413879303047    -0.48248808445    -0.439110460847    -0.4356893809    -0.219910715073    
-0.222401411028    -0.19702461051    -0.252646061096    -0.431081571581    -0.472159944379    
-0.471924931703    -0.455668453069    -0.394979416568    -0.389579855771    -0.36606850285    
-0.389675463922    -0.395376527394    -0.435828514519    -0.364342214742    -0.427371211504    
-0.342062038735    -0.428782783165    -0.377261422474    -0.388474250021    -0.43066101965    
-0.470670794243    -0.424196617349    -0.455110210201    -0.362270100373    -0.380037407363    
-0.365167700756    -0.386205908881    -0.335941692141    -0.350427885839    -0.429485648358    
-0.428176389908    -0.469626496658    -0.456968627459    -0.115280321051    -0.11235070829    
-0.135845737832    -0.358687543859    -0.331472635041    -0.296549710866    -0.280231187676    
-0.288816169156    -0.299531305088    -0.253342377333    -0.477826987252    -0.47812019072    
-0.462745683684    -0.460415677938    -0.46208560762    -0.478663989564    -0.478134869896    
-0.385226324439    -0.435674819744    -0.367915917146    -0.394950364446    -0.436593900052    
-0.369270892528    -0.335247695851    -0.348935138206    -0.385956139616    -0.311405987651    
-0.342643430472    -0.299661353672    -0.281266404806    -0.27343576844    -0.260234958045    
-0.221339461931    -0.293241324128    -0.25560776226    -0.220136865196    -0.184087989136    
-0.15652396274    -0.198989724662    -0.143455173003    -0.141404615279    -0.17127841795    
-0.0999946492227    -0.117849137955    -0.122572172278    -0.0879448273977    -0.170486550721    
-0.145586277541    -0.0995159967991    -0.349503564755    -0.380275771972    -0.311007169412    
-0.333299539575    -0.29944476646    -0.339079878571    -0.271191328797    -0.125083490991    
-0.120964802688    -0.176345153214    -0.139374546296    -0.182380657551    -0.211249951463    
-0.174735421501    -0.154975537351    -0.176519656488    -0.182685882253    -0.214120726651    
-0.174243236196    -0.191576685321    -0.13793449129    -0.124651308315    -0.166866009645    
-0.194972519444    -0.360674136414    -0.371380592812    -0.342574421737    -0.326930762705    
-0.482939601194    -0.482806171101    -0.482384348981    -0.445150924122    -0.466457434148    
-0.439424339245    -0.282774236936    -0.263272107951    -0.27425724369    -0.270453708467    
-0.242974226758    -0.282077600427    -0.254160691054    -0.290746608704    -0.281771026571    
-0.290750564305    -0.25385742145    -0.272687616278    -0.245591325123    -0.250101013652    
-0.285982318869    -0.252148363716    -0.270341462496    -0.222148772643    -0.190062801397    
-0.406147427615    -0.351293023895    -0.304364452113    -0.394513288601    -0.223051057444    
-0.196474249131    -0.197062248806    -0.252293515357    -0.253313609756    -0.194541449142    
-0.364840695239    -0.376400494391    -0.401676257319    -0.262530093768    -0.234695498248    
-0.260119817334    -0.296331454072    -0.310769744261    -0.293750080342    -0.295062895027    
-0.21628618435    -0.217866533998    -0.217855942865    -0.272252447549    -0.234559430875    
-0.208121394725    -0.235182870614    -0.305120434947    -0.274703811522    -0.357892761106    
-0.0574833904746    -0.0606427739383    -0.101552551699    -0.182403939637    -0.207712523092    
-0.189509401472    -0.181236631348    -0.157876218965    -0.128441881523    -0.105793082954    
-0.258879631231    -0.243639530423    -0.24527457583    -0.198368477546    -0.376619191562    
-0.412145259465    -0.238042488986    -0.158033723475    -0.183108703212    -0.193715982033    
-0.228497622592    -0.226256428104    -0.164533649888    -0.163927325349    -0.144988551207    
-0.138088746011    -0.192954703095    -0.192102048373    -0.185046058366    -0.15586856207    
-0.394036940206    -0.413185458473    -0.441332590016    -0.469477063407    -0.485487343766    
-0.485516990421    -0.485159859647    -0.437065546208    
1     2     3     38     
3     2     1     4     
5     6     7     9     
7     6     5     8     
5     7     8     48     
5     9     7     32     
5     6     9     28     
10     11     12     33     
12     11     10     3     
10     3     11     38     
13     14     15     32     
15     14     13     12     
12     13     15     33     
16     9     17     28     
17     9     16     14     
16     14     9     32     
18     19     20     62     
20     19     18     21     
22     23     24     67     
24     23     22     20     
22     20     23     62     
25     26     24     67     
24     26     25     27     
25     27     26     32     
28     17     16     27     
16     28     27     32     
17     28     9     6     
16     9     28     32     
5     28     9     32     
29     30     31     69     
31     30     29     23     
23     31     30     62     
23     30     29     67     
5     32     7     48     
9     7     32     13     
13     32     9     14     
7     32     13     65     
28     32     5     26     
26     28     32     27     
26     32     5     52     
27     32     25     16     
16     32     25     15     
15     16     32     14     
15     32     25     61     
13     32     15     33     
25     32     26     67     
32     33     13     65     
15     33     32     61     
10     33     15     34     
15     33     10     12     
12     13     33     11     
10     11     33     38     
13     33     11     65     
34     33     15     61     
10     33     34     38     
10     38     34     37     
37     10     38     1     
37     38     34     42     
34     38     33     42     
1     10     38     3     
33     38     11     93     
3     38     2     11     
11     38     2     93     
31     39     40     63     
40     39     31     19     
19     39     31     62     
33     42     38     73     
34     42     33     61     
37     42     34     35     
35     42     34     29     
37     42     35     36     
29     42     34     61     
35     42     29     69     
46     45     44     47     
44     45     46     43     
45     44     47     93     
46     47     44     65     
46     48     7     65     
7     48     46     49     
49     7     48     8     
32     48     5     52     
7     48     32     65     
51     48     50     68     
50     48     51     5     
5     50     48     8     
5     48     51     52     
26     32     52     67     
26     52     5     51     
48     52     32     65     
26     52     51     53     
51     52     48     68     
53     26     52     67     
53     52     51     55     
54     55     51     68     
51     55     54     53     
53     55     54     56     
51     55     52     68     
53     52     55     74     
56     53     55     74     
56     55     54     57     
57     56     55     60     
57     55     54     92     
59     60     55     89     
55     60     59     57     
57     59     55     92     
57     60     59     81     
56     60     57     41     
41     56     60     18     
41     60     57     81     
56     55     60     83     
56     60     18     62     
41     18     60     39     
15     34     61     25     
32     61     33     65     
34     61     25     29     
25     61     32     67     
25     29     61     67     
33     61     42     73     
42     61     29     69     
39     62     19     18     
18     39     62     60     
31     19     62     23     
31     62     39     63     
23     19     62     20     
23     62     30     74     
31     30     62     63     
56     60     62     83     
56     62     18     22     
22     62     18     20     
22     62     23     74     
62     63     30     83     
31     30     63     69     
39     63     62     83     
63     40     31     64     
31     63     64     35     
31     63     35     69     
61     65     32     52     
33     65     61     73     
61     65     52     87     
32     61     52     67     
7     65     13     46     
46     65     13     47     
13     47     65     11     
44     65     47     93     
47     65     11     93     
11     65     33     93     
52     67     61     30     
30     52     67     74     
30     61     52     76     
30     67     61     29     
30     67     23     74     
29     23     67     25     
30     29     61     69     
25     23     67     24     
26     67     53     22     
22     26     67     24     
22     67     53     74     
53     67     52     74     
23     67     22     74     
54     55     68     92     
52     68     55     87     
30     69     61     76     
61     69     42     76     
29     35     69     31     
63     69     30     83     
65     73     33     93     
61     73     65     87     
42     73     61     76     
33     73     38     93     
22     74     53     56     
56     22     74     62     
56     74     55     83     
52     55     74     76     
30     52     74     76     
30     74     62     83     
73     75     44     79     
44     75     73     66     
66     73     44     93     
42     76     69     77     
77     76     69     88     
42     77     69     78     
42     76     77     73     
61     76     73     87     
42     73     77     78     
52     76     61     87     
69     76     30     83     
30     76     74     83     
55     74     76     83     
55     76     52     87     
42     78     69     70     
70     78     69     88     
69     78     77     88     
77     78     73     75     
77     78     75     91     
44     73     79     87     
80     81     57     82     
57     81     80     41     
59     81     60     89     
69     83     63     88     
76     83     69     88     
55     83     76     89     
62     83     74     56     
55     60     83     89     
60     62     83     39     
39     83     60     84     
87     68     55     85     
55     85     68     92     
55     87     85     76     
55     76     85     89     
65     87     73     44     
44     73     65     93     
77     88     78     91     
63     88     83     89     
83     88     76     89     
76     88     85     89     
85     88     76     77     
77     85     88     91     
85     89     88     90     
55     89     85     59     
86     89     85     90     
85     89     86     59     
85     90     88     91     
55     59     85     92     
54     57     92     58     
57     59     92     58     
38     66     93     73     
93     66     38     71     
38     93     71     2     
93     71     2     72     
2     93     72     11     
11     93     72     47     
47     93     72     45     
66     93     44     45     

