title = " tecplot file for process Mesh " 
variables = "x",  "y", "z", "cell_type" 
zone N = 95 E = 406 DATAPACKING = BLOCK,  VARLOCATION = ([4]=CELLCENTERED), ZONETYPE=FETETRAHEDRON 
5.000000e-01     
5.000000e-01     4.167259e-01     5.000000e-01     5.000000e-01     5.000000e-01     
4.125669e-01     5.000000e-01     4.324995e-01     5.000000e-01     5.000000e-01     
4.159608e-01     5.000000e-01     5.000000e-01     4.099428e-01     5.000000e-01     
5.000000e-01     3.400973e-01     4.064314e-01     5.000000e-01     5.000000e-01     
4.045636e-01     5.000000e-01     5.000000e-01     4.180293e-01     3.274481e-01     
5.000000e-01     4.144159e-01     5.000000e-01     4.052975e-01     5.000000e-01     
2.404959e-01     2.414977e-01     2.159937e-01     4.346364e-01     4.183512e-01     
3.241324e-01     4.128872e-01     3.342662e-01     4.047434e-01     5.000000e-01     
4.108373e-01     5.000000e-01     4.199403e-01     5.000000e-01     4.108065e-01     
4.057430e-01     4.152798e-01     4.224014e-01     4.114264e-01     3.441565e-01     
2.397751e-01     3.033129e-01     3.584103e-01     3.478584e-01     4.238071e-01     
3.027383e-01     2.896198e-01     2.520400e-01     2.753953e-01     1.998937e-01     
2.672095e-01     2.094841e-01     3.102990e-01     3.634810e-01     2.747904e-01     
3.415252e-01     2.859465e-01     2.637406e-01     1.627360e-01     1.596909e-01     
3.195085e-01     3.198512e-01     3.244468e-01     2.518770e-01     2.262415e-01     
1.694549e-01     2.046196e-01     2.034474e-01     1.989850e-01     1.586154e-01     
2.772326e-01     1.569956e-01     3.278424e-01     1.039903e-01     1.281992e-01     
3.356618e-02     2.167192e-01     1.626396e-01     1.222356e-01     2.202300e-01     
1.353615e-01     1.930056e-01     4.433114e-01     1.290798e-01     
5.000000e-01     
4.163841e-01     5.000000e-01     5.000000e-01     4.126178e-01     5.000000e-01     
5.000000e-01     4.321533e-01     5.000000e-01     5.000000e-01     4.162748e-01     
5.000000e-01     5.000000e-01     3.302813e-01     3.563551e-01     4.128642e-01     
3.259199e-01     5.000000e-01     3.957228e-01     3.387404e-01     2.310521e-01     
2.822865e-01     2.855261e-01     3.268247e-01     3.852755e-01     5.000000e-01     
2.371940e-01     2.078329e-01     1.552525e-01     2.708136e-01     2.365064e-01     
5.000000e-01     5.000000e-01     4.087856e-01     4.316022e-01     4.175448e-01     
5.000000e-01     5.000000e-01     4.051028e-01     1.429776e-01     1.309113e-01     
1.095501e-01     1.133817e-01     1.920898e-01     1.763997e-01     2.101569e-01     
1.160623e-01     1.805055e-01     3.466218e-01     3.180684e-01     4.246380e-01     
4.138598e-01     4.068890e-01     3.655507e-01     2.375299e-01     3.012151e-01     
1.367728e-01     1.197060e-01     4.633019e-02     3.628053e-01     4.018832e-01     
4.011284e-01     2.932253e-01     2.938676e-01     2.737711e-01     2.699378e-01     
3.128120e-01     3.517081e-01     2.749316e-01     3.275821e-01     3.482882e-01     
2.058578e-01     2.125020e-01     3.239175e-01     3.252091e-01     2.874042e-01     
1.916033e-01     1.458495e-01     9.500666e-02     2.461435e-01     1.508936e-01     
2.023232e-01     2.345615e-01     1.796207e-01     1.000127e-01     1.128847e-01     
1.805921e-01     1.858947e-01     2.253253e-01     1.895138e-01     1.622257e-01     
2.612971e-01     6.330788e-02     2.766187e-01     2.690992e-01     
0.000000e+00     
-3.482816e-02     -3.401332e-02     -1.000000e-01     -1.351507e-01     -2.000000e-01     
-1.347260e-01     4.966861e-02     5.093201e-02     1.000000e-01     1.338316e-01     
1.366332e-01     2.000000e-01     2.582393e-01     2.188789e-01     2.331329e-01     
1.652643e-01     5.170053e-02     7.764854e-02     4.944539e-02     2.254400e-01     
2.708449e-01     3.288553e-01     -6.729391e-02     -7.909091e-02     -6.652191e-02     
1.054914e-01     1.613247e-01     1.530427e-01     4.991876e-02     -5.180564e-03     
1.059542e-01     -5.755671e-03     4.831717e-02     2.882578e-01     1.595807e-01     
1.724774e-01     2.381480e-01     -7.463498e-03     8.376815e-02     5.067157e-02     
1.794774e-01     2.403316e-01     2.530347e-01     3.258233e-01     -2.246080e-02     
-1.415715e-02     -1.121779e-01     2.956004e-03     1.320240e-01     2.270349e-01     
-4.189146e-02     1.163367e-01     3.114284e-01     3.384389e-01     -1.002472e-01     
9.029134e-03     1.368564e-01     3.777487e-02     1.934246e-01     1.555070e-01     
2.778618e-01     3.045771e-01     2.718335e-01     1.924274e-01     1.870548e-01     
-4.478111e-02     4.700822e-02     4.993615e-03     2.181834e-01     3.420747e-01     
-5.911103e-02     8.662246e-02     1.327462e-01     -7.536281e-02     9.904607e-02     
1.639470e-01     6.589751e-02     1.956325e-01     2.288588e-01     3.171279e-01     
3.591781e-01     3.429802e-01     2.103820e-01     2.353010e-01     1.495434e-01     
1.915037e-01     -3.342174e-02     7.976097e-02     2.424339e-01     2.527781e-01     
1.829845e-01     1.082801e-01     1.924084e-01     2.638339e-01     

0      
0      0      0      0      0      0      0      0      0      0      
0      0      0      0      0      0      0      0      0      0      
0      0      0      0      0      0      0      0      0      0      
0      0      0      0      0      0      0      0      0      0      
0      0      0      0      0      0      0      0      0      0      
0      0      0      0      0      0      0      0      0      0      
0      0      0      0      0      0      0      0      0      0      
0      0      0      0      0      0      0      0      0      0      
0      0      0      0      0      0      0      0      0      0      
0      0      0      0      0      0      0      0      0      0      
0      0      0      0      0      0      0      0      0      0      
0      0      0      0      0      0      0      0      0      0      
0      0      0      0      0      0      0      0      0      0      
0      0      0      0      0      0      0      0      0      0      
0      0      0      0      0      0      0      0      0      0      
0      0      0      0      0      0      0      0      0      0      
0      0      0      0      0      0      0      0      0      0      
0      0      0      0      0      0      0      0      0      0      
0      0      0      0      0      0      0      0      0      0      
0      0      0      0      0      0      0      0      0      0      
0      0      0      0      0      0      0      0      0      0      
0      0      0      0      0      0      0      0      0      0      
0      0      0      0      0      0      0      0      0      0      
0      0      0      1      1      1      1      1      1      1      
1      1      1      1      1      1      1      1      1      1      
1      1      1      1      1      1      1      1      1      1      
1      1      1      1      1      1      1      1      1      1      
1      1      1      1      1      1      1      1      1      1      
1      1      1      1      1      1      1      1      1      1      
1      1      1      1      1      1      1      1      1      1      
1      1      1      1      1      1      1      1      1      1      
1      1      1      1      1      1      1      1      1      1      
1      1      1      1      1      1      1      1      1      1      
1      1      1      1      1      1      1      1      1      1      
1      1      1      1      1      1      1      1      1      1      
1      1      1      1      1      1      1      1      1      1      
1      1      1      1      1      1      1      1      1      1      
1      1      1      1      1      1      1      1      1      1      
1      1      1      1      1      1      1      1      1      1      
1      1      1      1      1      1      1      1      1      1      
1      1      1      1      1      

1      2      3      8      
3      2      1      4      
4      3      2      25      
5      7      4      25      
4      7      5      6      
1      8      3      9      
9      1      8      10      
9      8      3      19      
3      8      2      49      
9      10      8      11      
9      11      8      19      
9      10      11      12      
11      12      10      13      
9      12      11      19      
13      11      12      36      
14      15      16      35      
16      15      14      17      
17      16      15      36      
17      15      14      94      
18      19      9      3      
9      19      18      12      
12      19      18      53      
11      19      12      36      
8      19      11      20      
3      19      8      49      
20      19      11      50      
8      19      20      49      
21      22      23      44      
23      22      21      14      
14      23      22      54      
14      22      21      94      
24      25      2      49      
2      25      24      5      
5      2      25      4      
3      7      25      4      
25      7      3      26      
3      25      26      39      
2      25      3      49      
27      28      29      40      
29      28      27      21      
21      29      28      44      
21      28      27      94      
27      30      20      50      
20      30      27      31      
31      20      30      49      
31      30      27      40      
18      33      34      39      
34      33      18      32      
18      34      32      53      
16      35      15      36      
14      15      35      54      
12      36      19      53      
11      19      36      50      
37      36      12      53      
12      36      37      38      
38      12      36      13      
38      36      37      51      
35      36      38      51      
38      36      35      16      
16      38      36      13      
15      36      35      51      
13      36      16      11      
11      36      16      17      
11      36      17      50      
17      36      15      50      
18      26      39      3      
39      26      18      33      
34      39      33      52      
18      39      34      53      
3      39      18      19      
3      25      39      49      
27      40      30      28      
28      30      27      50      
28      40      30      73      
41      40      27      29      
27      40      41      31      
31      40      41      46      
30      40      31      46      
21      44      43      29      
43      44      21      45      
45      44      21      23      
21      44      28      94      
21      22      44      94      
40      46      30      73      
31      30      46      49      
41      46      40      47      
47      46      40      57      
46      49      30      67      
20      49      31      24      
24      20      49      2      
20      30      49      19      
20      49      2      8      
3      49      39      19      
19      49      39      68      
27      50      17      94      
17      50      27      20      
20      17      50      11      
20      50      30      19      
28      30      50      73      
28      50      27      94      
19      36      50      74      
15      50      36      74      
17      50      15      94      
15      36      51      74      
37      51      36      53      
39      52      34      68      
39      53      18      19      
19      39      53      68      
34      53      39      68      
32      18      53      37      
37      18      53      12      
19      53      36      74      
51      53      37      60      
36      53      51      74      
14      54      22      15      
15      54      22      64      
14      15      22      94      
46      57      47      72      
40      57      46      73      
53      60      51      74      
63      64      60      66      
60      64      63      62      
62      60      64      51      
62      63      60      70      
60      64      51      15      
15      60      64      65      
15      51      60      74      
60      64      65      66      
15      65      64      22      
15      60      65      74      
22      64      54      55      
65      64      22      84      
15      65      22      94      
66      64      65      84      
60      66      65      74      
66      63      64      80      
66      60      63      70      
22      64      55      84      
67      46      49      56      
30      67      49      68      
46      67      30      72      
53      68      34      76      
19      68      53      74      
49      68      19      30      
30      68      19      74      
39      68      49      67      
30      67      68      69      
39      68      67      75      
67      68      69      75      
30      69      68      73      
30      67      69      72      
39      52      68      75      
66      60      70      76      
66      70      63      80      
62      63      70      71      
63      70      71      95      
57      72      46      73      
47      46      72      48      
46      72      30      73      
30      72      69      73      
58      73      40      84      
40      73      58      57      
57      73      58      78      
28      40      73      84      
69      73      72      88      
50      73      30      74      
28      73      50      65      
28      73      65      84      
50      65      73      74      
50      28      65      94      
68      73      69      76      
30      73      68      74      
65      74      66      73      
60      66      74      76      
15      74      65      50      
15      50      65      94      
60      74      53      76      
19      74      50      30      
53      74      68      76      
68      74      73      76      
73      74      66      76      
65      73      66      84      
53      60      76      61      
61      60      76      70      
66      76      70      80      
66      73      76      77      
73      76      77      78      
66      77      76      80      
66      73      77      84      
69      76      73      78      
77      73      78      58      
77      78      76      89      
57      73      78      88      
57      78      58      59      
58      78      77      79      
59      57      78      88      
59      78      58      93      
58      78      79      93      
76      78      69      89      
73      69      78      88      
63      80      70      95      
76      80      77      92      
66      77      80      91      
70      80      76      92      
64      80      63      91      
66      80      64      91      
66      64      84      91      
65      84      44      28      
44      84      65      22      
22      65      44      94      
40      84      28      42      
28      42      84      44      
44      65      28      94      
77      90      86      87      
86      90      77      79      
79      86      90      85      
85      86      90      87      
87      77      90      92      
91      77      80      90      
80      90      77      92      
80      91      90      83      
66      77      91      84      
83      81      91      90      
91      81      83      82      
83      91      82      63      
63      91      80      83      
83      80      63      95      
63      91      82      64      
80      90      92      95      
70      80      92      95      
87      92      90      95      
90      80      83      95      
14      17      94      21      
17      94      21      27      
2      4       1      2      
5      6       4      5      
1      8       2      1      
10      8       1      10      
10      11       8      10      
13      11       10      13      
17      16       14      17      
8      11       20      8      
14      23       21      14      
5      2       24      5      
5      4       2      5      
21      29       27      21      
31      20       27      31      
13      16       11      13      
11      16       17      11      
31      27       41      31      
27      29       41      27      
45      43       21      45      
21      43       29      21      
21      23       45      21      
24      20       31      24      
24      2       20      24      
2      8       20      2      
20      17       27      20      
20      11       17      20      
17      14       21      17      
27      17       21      27      
4      3       1      4      
6      7       4      6      
9      1       3      9      
9      10       1      9      
12      10       9      12      
12      13       10      12      
12      9       18      12      
3      7       26      3      
4      7       3      4      
18      33       32      18      
38      12       37      38      
38      13       12      38      
18      26       33      18      
3      26       18      3      
37      18       32      37      
12      18       37      12      
9      3       18      9      
58      79       93      58      
29      40       41      29      
28      40       29      28      
42      40       28      42      
43      44       29      43      
28      44       42      28      
29      44       28      29      
44      43       45      44      
23      44       45      23      
22      44       23      22      
40      58       57      40      
59      57       58      59      
64      84       55      64      
55      84       22      55      
44      22       84      44      
84      58       40      84      
42      84       40      42      
44      84       42      44      
91      84       64      91      
82      91       64      82      
81      91       82      81      
58      93       59      58      
16      35       14      16      
38      35       16      38      
38      16       13      38      
38      51       35      38      
35      51       15      35      
51      38       37      51      
22      54       55      22      
23      54       22      23      
14      54       23      14      
35      54       14      35      
15      54       35      15      
60      51       37      60      
51      60       62      51      
63      64       62      63      
62      64       51      62      
15      51       64      15      
15      64       54      15      
54      64       55      54      
70      71       62      70      
62      71       63      62      
73      77       58      73      
79      58       77      79      
81      82       83      81      
64      63       82      64      
58      84       73      58      
81      83       90      81      
77      90       79      77      
79      90       85      79      
85      90       87      85      
77      91       90      77      
84      91       77      84      
83      82       63      83      
77      73       84      77      
90      91       81      90      
95      90       83      95      
95      87       90      95      
70      95       71      70      
71      95       63      71      
63      95       83      63      
78      79       77      78      
85      86       79      85      
79      86       77      79      
86      85       87      86      
79      78       93      79      
32      33       34      32      
52      34       33      52      
34      53       32      34      
32      53       37      32      
53      60       37      53      
61      60       53      61      
52      68       34      52      
60      70       62      60      
61      70       60      61      
75      68       52      75      
68      75       69      68      
68      76       34      68      
53      76       61      53      
76      70       61      76      
69      76       68      69      
77      86       87      77      
69      88       78      69      
77      89       78      77      
89      77       76      89      
89      76       69      89      
78      89       69      78      
77      87       92      77      
76      77       92      76      
70      76       92      70      
34      76       53      34      
87      95       92      87      
92      95       70      92      
46      31       41      46      
46      41       47      46      
41      40       47      41      
48      46       47      48      
46      49       31      46      
31      49       24      31      
46      56       49      46      
57      47       40      57      
57      72       47      57      
47      72       48      47      
88      57       59      88      
46      67       56      46      
72      46       48      72      
46      72       67      46      
67      72       69      67      
57      73       72      57      
69      75       67      69      
78      88       59      78      
57      88       73      57      
72      88       69      72      
73      88       72      73      
78      59       93      78      
7      6       5      7      
24      25       5      24      
7      25       26      7      
5      25       7      5      
26      39       33      26      
25      39       26      25      
24      49       25      24      
25      49       39      25      
33      39       52      33      
49      67       39      49      
49      56       67      49      
39      75       52      39      
39      67       75      39      
