title = " tecplot file for process Mesh " 
variables = "x",  "y", "z", "cell_type" 
zone N = 95 E = 407 DATAPACKING = BLOCK,  VARLOCATION = ([4]=CELLCENTERED), ZONETYPE=FETETRAHEDRON 
5.000000e-01     
5.000000e-01     3.995672e-01     5.000000e-01     5.000000e-01     4.115682e-01     
5.000000e-01     4.157808e-01     5.000000e-01     5.000000e-01     5.000000e-01     
5.000000e-01     4.127664e-01     5.000000e-01     5.000000e-01     4.157596e-01     
5.000000e-01     5.000000e-01     4.125669e-01     5.000000e-01     5.000000e-01     
4.164386e-01     4.322799e-01     5.000000e-01     5.000000e-01     4.291383e-01     
5.000000e-01     5.000000e-01     4.283602e-01     5.000000e-01     4.116530e-01     
5.000000e-01     4.216898e-01     4.050492e-01     5.000000e-01     3.395765e-01     
3.261820e-01     4.156964e-01     5.000000e-01     4.180293e-01     5.000000e-01     
3.274481e-01     4.106547e-01     5.000000e-01     3.238392e-01     2.841273e-01     
3.373877e-01     3.284685e-01     2.284486e-01     2.930988e-01     3.223794e-01     
2.343925e-01     1.532372e-01     1.739911e-01     1.343435e-01     2.947400e-01     
1.743233e-01     1.126964e-01     1.102617e-01     3.057762e-01     2.122078e-01     
1.835402e-01     4.162771e-01     4.222639e-01     5.000000e-01     4.162213e-01     
2.414977e-01     3.342662e-01     4.201413e-01     4.224014e-01     4.256443e-01     
2.302940e-01     2.397751e-01     5.725045e-02     5.798689e-02     1.069165e-01     
3.412820e-01     3.300659e-01     3.549314e-01     3.989734e-01     3.287299e-01     
2.351180e-01     1.635917e-01     2.714558e-01     4.238071e-01     2.987331e-01     
3.415252e-01     1.970003e-01     1.344816e-01     2.364088e-01     3.399738e-01     
3.053391e-01     2.518770e-01     1.096724e-01     3.144869e-01     
3.996975e-01     
5.000000e-01     5.000000e-01     5.000000e-01     4.118837e-01     5.000000e-01     
5.000000e-01     3.394775e-01     3.402928e-01     3.000000e-01     4.000000e-01     
2.387814e-01     2.380280e-01     2.000000e-01     1.370487e-01     1.364753e-01     
1.000000e-01     4.126178e-01     5.000000e-01     -3.345431e-02     0.000000e+00     
-3.416514e-02     5.080411e-02     5.132827e-02     -1.000000e-01     4.279073e-01     
5.000000e-01     4.283888e-01     5.000000e-01     3.289274e-01     3.547036e-01     
3.232997e-01     3.894597e-01     2.353442e-02     5.272929e-02     5.137032e-02     
2.821727e-01     2.877733e-01     2.842456e-01     3.852755e-01     3.268247e-01     
5.000000e-01     1.832712e-01     1.739836e-01     1.721953e-01     5.000000e-01     
4.055327e-01     5.000000e-01     5.000000e-01     4.141646e-01     5.000000e-01     
5.000000e-01     5.000000e-01     4.047340e-01     5.000000e-01     4.135265e-01     
5.000000e-01     4.008107e-01     5.000000e-01     3.358306e-01     2.912886e-01     
4.170601e-01     2.616783e-01     3.186511e-01     2.292181e-01     4.163511e-01     
5.000000e-01     4.051028e-01     1.047942e-01     3.466218e-01     4.255954e-01     
4.226300e-01     4.138598e-01     5.000000e-01     4.184704e-01     4.095111e-01     
4.137511e-01     2.392080e-01     3.347354e-01     2.116672e-01     1.113949e-01     
3.358248e-01     3.041797e-01     3.182157e-01     3.012151e-01     2.226308e-01     
3.128120e-01     4.125538e-01     3.165263e-01     2.294673e-01     2.942431e-01     
2.955399e-01     3.252091e-01     3.529183e-01     2.378622e-01     
-3.386666e-01     
-4.000000e-01     -3.384982e-01     -3.000000e-01     -2.353859e-01     -2.350300e-01     
-2.000000e-01     -5.000000e-01     -4.175745e-01     -5.000000e-01     -5.000000e-01     
-4.143382e-01     -5.000000e-01     -5.000000e-01     -4.160959e-01     -5.000000e-01     
-5.000000e-01     -1.351507e-01     -1.347260e-01     -4.162155e-01     -5.000000e-01     
-5.000000e-01     -5.000000e-01     -4.318804e-01     -5.000000e-01     -5.000000e-01     
-5.000000e-01     -4.301846e-01     -4.301297e-01     -2.620945e-01     -2.235773e-01     
-1.732515e-01     -3.954752e-01     -3.954118e-01     -3.381394e-01     -5.000000e-01     
-5.000000e-01     -3.875910e-01     -3.308602e-01     -7.909091e-02     -6.729391e-02     
-6.652191e-02     -3.855319e-01     -3.261616e-01     -5.000000e-01     -3.307702e-01     
-3.103053e-01     -2.616473e-01     -2.292808e-01     -2.210789e-01     -1.723085e-01     
-1.134911e-01     -1.558588e-01     -1.076036e-01     -5.346078e-02     -1.174405e-01     
-3.269536e-01     -3.023762e-01     -2.405524e-01     -4.045871e-01     -4.113362e-01     
-3.860552e-01     -1.772360e-01     -3.043166e-01     -2.297660e-01     -1.612047e-01     
-5.755671e-03     -7.463498e-03     -4.199397e-01     2.956004e-03     -2.893631e-01     
-2.981142e-01     -4.189146e-02     -1.432273e-01     -1.046229e-01     -1.798795e-01     
-4.152184e-01     -4.029951e-01     -1.412307e-01     -2.769245e-01     -4.307480e-01     
-1.688089e-01     -3.137295e-01     -2.785619e-01     -1.002472e-01     -1.538955e-01     
-4.478111e-02     -2.097569e-01     -1.955454e-01     -3.214489e-01     -3.321700e-01     
-2.014007e-01     -7.536281e-02     -8.150247e-02     -2.683836e-01     

0      
0      0      0      0      0      0      0      0      0      0      
0      0      0      0      0      0      0      0      0      0      
0      0      0      0      0      0      0      0      0      0      
0      0      0      0      0      0      0      0      0      0      
0      0      0      0      0      0      0      0      0      0      
0      0      0      0      0      0      0      0      0      0      
0      0      0      0      0      0      0      0      0      0      
0      0      0      0      0      0      0      0      0      0      
0      0      0      0      0      0      0      0      0      0      
0      0      0      0      0      0      0      0      0      0      
0      0      0      0      0      0      0      0      0      0      
0      0      0      0      0      0      0      0      0      0      
0      0      0      0      0      0      0      0      0      0      
0      0      0      0      0      0      0      0      0      0      
0      0      0      0      0      0      0      0      0      0      
0      0      0      0      0      0      0      0      0      0      
0      0      0      0      0      0      0      0      0      0      
0      0      0      0      0      0      0      0      0      0      
0      0      0      0      0      0      0      0      0      0      
0      0      0      0      0      0      0      0      0      0      
0      0      0      0      0      0      0      0      0      0      
0      0      0      0      0      0      0      0      0      0      
0      0      0      0      0      0      0      0      0      0      
0      0      1      1      1      1      1      1      1      1      
1      1      1      1      1      1      1      1      1      1      
1      1      1      1      1      1      1      1      1      1      
1      1      1      1      1      1      1      1      1      1      
1      1      1      1      1      1      1      1      1      1      
1      1      1      1      1      1      1      1      1      1      
1      1      1      1      1      1      1      1      1      1      
1      1      1      1      1      1      1      1      1      1      
1      1      1      1      1      1      1      1      1      1      
1      1      1      1      1      1      1      1      1      1      
1      1      1      1      1      1      1      1      1      1      
1      1      1      1      1      1      1      1      1      1      
1      1      1      1      1      1      1      1      1      1      
1      1      1      1      1      1      1      1      1      1      
1      1      1      1      1      1      1      1      1      1      
1      1      1      1      1      1      1      1      1      1      
1      1      1      1      1      1      1      1      1      1      
1      1      1      1      1      1      

1      2      3      33      
3      2      1      4      
1      3      4      71      
5      4      6      71      
6      4      5      7      
5      6      7      66      
8      9      10      38      
10      9      8      11      
8      11      9      33      
12      13      10      38      
10      13      12      14      
12      14      13      43      
15      16      14      43      
14      16      15      17      
15      17      16      69      
20      21      22      25      
22      21      20      23      
23      20      22      34      
23      21      20      24      
23      24      20      34      
23      21      24      17      
24      23      17      69      
26      27      28      29      
28      27      26      11      
11      26      28      33      
28      29      27      2      
28      26      29      33      
28      29      2      33      
30      31      32      63      
32      31      30      5      
5      32      31      66      
5      31      30      71      
1      33      28      2      
28      33      1      9      
9      28      33      11      
9      33      1      64      
29      33      26      77      
3      33      29      77      
29      33      3      2      
1      33      3      71      
11      26      33      8      
8      33      9      38      
26      33      8      77      
24      35      34      69      
34      35      24      20      
23      24      34      69      
23      34      22      36      
36      23      34      69      
37      38      13      78      
13      38      37      8      
8      13      38      10      
8      38      37      60      
39      38      9      64      
9      38      39      12      
12      9      38      10      
12      38      39      43      
33      38      8      60      
9      38      33      64      
12      13      38      43      
12      43      39      44      
44      12      43      15      
44      43      39      80      
39      43      38      80      
15      12      43      14      
15      43      44      69      
38      43      13      78      
45      43      16      81      
16      43      45      13      
13      16      43      14      
13      43      45      78      
15      16      43      69      
46      47      3      77      
3      47      46      48      
48      3      47      71      
48      47      46      72      
49      50      48      72      
48      50      49      51      
51      48      50      6      
51      50      49      52      
48      50      6      71      
51      6      50      66      
52      51      50      56      
52      50      49      88      
53      54      52      88      
52      54      53      55      
55      52      54      73      
55      54      53      75      
51      56      52      42      
42      51      56      19      
42      56      52      73      
52      56      50      88      
51      50      56      66      
51      56      19      66      
42      19      56      40      
19      56      40      66      
42      40      56      68      
38      60      33      91      
8      33      60      77      
37      60      38      78      
32      63      31      85      
30      31      63      64      
38      64      39      80      
9      39      64      1      
33      64      38      91      
39      64      1      30      
1      64      33      71      
39      64      30      65      
1      30      64      71      
39      64      65      80      
31      63      64      95      
31      64      30      71      
19      66      40      18      
18      19      66      7      
18      66      40      85      
40      66      56      79      
19      51      66      6      
50      56      66      79      
50      66      6      71      
19      6      66      7      
32      66      18      85      
18      66      32      5      
5      18      66      7      
31      66      32      85      
5      66      31      71      
6      66      5      71      
42      68      56      73      
40      56      68      87      
43      69      16      81      
23      69      36      16      
16      23      69      17      
16      69      36      81      
36      69      34      81      
24      69      17      15      
24      69      15      35      
15      69      44      35      
3      71      33      47      
47      71      33      64      
3      47      33      77      
47      64      33      91      
47      71      64      31      
47      31      64      91      
47      71      31      50      
5      71      30      1      
1      5      71      4      
50      71      31      66      
47      50      31      84      
47      71      50      48      
31      50      66      79      
48      50      47      72      
48      71      6      3      
6      3      71      4      
62      72      61      83      
61      72      62      60      
60      61      72      84      
60      72      62      77      
46      48      72      49      
46      72      47      77      
47      72      50      84      
46      49      72      57      
49      50      72      88      
49      72      57      88      
52      73      56      54      
54      56      52      88      
54      73      56      93      
67      73      52      55      
52      73      67      42      
42      73      67      68      
56      73      68      93      
55      75      53      74      
53      75      54      76      
76      54      53      88      
76      75      54      94      
60      77      33      47      
47      60      77      72      
47      33      60      91      
47      60      72      84      
78      45      13      37      
45      78      43      81      
43      78      38      91      
38      78      60      91      
31      50      79      92      
31      79      66      85      
56      79      50      82      
66      79      40      85      
56      40      79      87      
44      80      39      65      
38      80      43      91      
38      64      80      91      
16      45      81      36      
50      82      79      92      
56      79      82      93      
56      82      50      88      
61      83      72      84      
61      84      60      90      
47      60      84      91      
31      84      50      92      
47      84      31      91      
50      84      72      88      
70      85      40      87      
40      85      70      41      
41      40      85      18      
31      85      63      79      
63      79      85      86      
63      31      79      92      
85      41      18      32      
79      86      63      92      
40      87      68      70      
56      68      87      93      
56      87      79      93      
84      88      50      82      
84      88      82      89      
50      84      82      92      
56      82      88      54      
54      82      88      89      
54      56      82      93      
49      52      88      53      
53      88      49      59      
76      54      88      89      
59      88      49      57      
58      88      57      72      
57      88      58      59      
82      89      54      94      
54      89      76      94      
78      90      60      91      
60      90      78      61      
60      90      84      91      
84      91      90      95      
31      91      84      95      
63      92      86      95      
79      92      82      93      
31      84      92      95      
63      31      92      95      
54      93      82      94      
1      2       4      1      
5      4       7      5      
11      9       10      11      
8      11       10      8      
13      10       14      13      
10      12       14      10      
16      14       17      16      
14      15       17      14      
21      22       23      21      
21      24       20      21      
23      17       21      23      
17      24       21      17      
20      25       21      20      
25      22       21      25      
11      27       28      11      
26      27       11      26      
28      27       2      28      
5      32       30      5      
9      28       1      9      
28      2       1      28      
11      28       9      11      
26      11       8      26      
24      35       20      24      
36      23       22      36      
8      13       37      8      
12      9       39      12      
10      9       12      10      
8      10       13      8      
44      12       39      44      
15      12       44      15      
13      16       45      13      
13      14       16      13      
14      12       15      14      
39      9       1      39      
1      30       39      1      
39      30       65      39      
5      18       32      5      
5      7       18      5      
16      23       36      16      
16      17       23      16      
17      15       24      17      
35      15       44      35      
24      15       35      24      
1      5       30      1      
1      4       5      1      
13      45       37      13      
39      65       44      39      
16      36       45      16      
18      41       32      18      
2      3       4      2      
4      6       7      4      
2      27       29      2      
2      29       3      2      
48      3       46      48      
51      48       49      51      
51      6       48      51      
52      51       49      52      
55      52       53      55      
42      51       52      42      
42      19       51      42      
19      6       51      19      
7      6       19      7      
6      3       48      6      
4      3       6      4      
46      49       48      46      
46      57       49      46      
42      52       67      42      
67      52       55      67      
53      74       55      53      
52      49       53      52      
53      49       59      53      
57      59       49      57      
55      73       67      55      
54      73       55      54      
74      75       55      74      
55      75       54      55      
93      73       54      93      
54      94       93      54      
75      94       54      75      
18      7       19      18      
18      40       41      18      
42      40       19      42      
19      40       18      19      
67      68       42      67      
42      68       40      42      
40      70       41      40      
68      70       40      68      
73      68       67      73      
68      87       70      68      
87      85       70      87      
73      93       68      73      
93      87       68      93      
25      20       22      25      
35      34       20      35      
22      34       36      22      
20      34       22      20      
30      32       63      30      
30      64       65      30      
30      63       64      30      
44      69       35      44      
43      69       44      43      
35      69       34      35      
44      80       43      44      
65      80       44      65      
64      80       65      64      
69      81       34      69      
43      81       69      43      
81      36       34      81      
70      85       41      70      
32      85       63      32      
32      41       85      32      
85      86       63      85      
95      64       63      95      
63      86       95      63      
78      81       43      78      
61      84       83      61      
79      85       40      79      
86      85       79      86      
40      87       79      40      
85      87       40      85      
89      84       82      89      
61      90       84      61      
78      91       90      78      
31      91       64      31      
91      80       64      91      
91      78       43      91      
80      91       43      80      
92      86       79      92      
84      92       82      84      
87      93       79      87      
79      93       92      79      
92      93       82      92      
94      89       82      94      
89      94       76      89      
86      92       95      86      
84      95       92      84      
90      95       84      90      
91      95       90      91      
64      95       31      64      
31      95       91      31      
93      94       82      93      
29      27       26      29      
57      58       59      57      
8      37       60      8      
60      61       62      60      
57      72       58      57      
72      57       46      72      
75      74       53      75      
53      76       75      53      
72      77       62      72      
62      77       60      62      
46      77       72      46      
3      29       77      3      
26      77       29      26      
60      77       8      60      
26      8       77      26      
60      37       78      60      
60      78       61      60      
45      78       37      45      
36      81       45      36      
45      81       78      45      
62      83       72      62      
83      62       61      83      
83      84       72      83      
84      88       72      84      
58      72       88      58      
53      88       76      53      
59      88       53      59      
58      88       59      58      
88      89       76      88      
84      89       88      84      
61      78       90      61      
76      94       75      76      
46      3       77      46      
