title = " tecplot file for process Mesh " 
variables = "x",  "y", "z", "cell_type" 
zone N = 91 E = 390 DATAPACKING = BLOCK,  VARLOCATION = ([4]=CELLCENTERED), ZONETYPE=FETETRAHEDRON 
-5.000000e-01     
-5.000000e-01     -4.138705e-01     -5.000000e-01     -4.162747e-01     -5.000000e-01     
-5.000000e-01     -5.000000e-01     -4.156480e-01     -5.000000e-01     -5.000000e-01     
-4.158524e-01     -5.000000e-01     -5.000000e-01     -4.229687e-01     -5.000000e-01     
-5.000000e-01     -4.198408e-01     -5.000000e-01     -4.211338e-01     -5.000000e-01     
-5.000000e-01     -4.149058e-01     -5.000000e-01     -4.187052e-01     -5.000000e-01     
-4.184488e-01     -4.176478e-01     -3.283097e-01     -4.188366e-01     -4.075333e-01     
-2.463127e-01     -2.801921e-01     -2.601134e-01     -3.341502e-01     -2.758446e-01     
-2.361093e-01     -3.313112e-01     -2.323866e-01     -2.759888e-01     -2.632082e-01     
-3.323717e-01     -2.145795e-01     -1.650390e-01     -1.174383e-01     -1.185787e-01     
-3.942657e-01     -4.235672e-01     -3.158608e-01     -3.537007e-01     -1.653230e-01     
-2.019927e-01     -1.449325e-01     -2.301975e-01     -3.949485e-01     -4.032624e-01     
-4.012454e-01     -2.961233e-01     -3.326272e-01     -3.376967e-01     -2.991160e-01     
-3.565180e-01     -3.233067e-01     -3.502059e-01     -2.274926e-01     -2.042337e-01     
-3.493834e-01     -3.323582e-01     -2.833985e-01     -2.062115e-01     -1.875370e-01     
-3.023422e-01     -2.745640e-01     -2.008274e-01     -9.244673e-02     -2.754078e-01     
-3.474381e-01     -3.031029e-01     -2.044177e-01     -1.869388e-01     -2.956912e-01     
-3.316247e-01     -3.205075e-01     -3.104070e-01     -2.343745e-01     -2.453883e-01     
-2.383653e-01     -3.380982e-01     -3.351896e-01     -2.431211e-01     -2.607704e-01     

-4.148503e-01     
-5.000000e-01     -5.000000e-01     -5.000000e-01     -5.000000e-01     -4.172805e-01     
-5.000000e-01     -4.161203e-01     -5.000000e-01     -5.000000e-01     -5.000000e-01     
-5.000000e-01     -4.166445e-01     -2.490588e-01     -2.829296e-01     -3.295694e-01     
-3.360925e-01     -3.900058e-01     -3.334971e-01     -3.885426e-01     -3.251314e-01     
-2.334176e-01     -2.165609e-01     -3.329283e-01     -3.892317e-01     -4.186464e-01     
-5.000000e-01     -3.874447e-01     -5.000000e-01     -3.840169e-01     -2.986385e-01     
-5.000000e-01     -4.289860e-01     -5.000000e-01     -5.000000e-01     -4.175052e-01     
-5.000000e-01     -5.000000e-01     -5.000000e-01     -4.074786e-01     -5.000000e-01     
-5.000000e-01     -4.137066e-01     -5.000000e-01     -4.074352e-01     -5.000000e-01     
-3.372304e-01     -3.085903e-01     -3.209209e-01     -4.186062e-01     -4.109369e-01     
-4.140975e-01     -4.016415e-01     -5.000000e-01     -3.311771e-01     -2.767875e-01     
-3.332027e-01     -3.807663e-01     -2.137908e-01     -3.607227e-01     -3.408730e-01     
-4.298556e-01     -5.000000e-01     -4.240284e-01     -4.282821e-01     -2.943101e-01     
-4.245095e-01     -2.475493e-01     -2.712165e-01     -2.943064e-01     -4.120794e-01     
-4.173945e-01     -2.223731e-01     -3.187790e-01     -3.773884e-01     -3.373837e-01     
-2.425458e-01     -1.442318e-01     -2.414552e-01     -3.196433e-01     -3.089671e-01     
-3.662413e-01     -1.485078e-01     -2.861248e-01     -2.038090e-01     -1.663794e-01     
-2.596275e-01     -3.355631e-01     -2.679621e-01     -3.723038e-01     -3.530604e-01     

-4.722725e-02     
-1.000000e-01     -4.724924e-02     0.000000e+00     5.081917e-02     5.080336e-02     
1.000000e-01     2.468152e-01     2.469178e-01     3.000000e-01     2.000000e-01     
1.490320e-01     1.489758e-01     1.355396e-01     9.602862e-02     1.950294e-01     
9.912744e-02     9.963554e-02     4.844494e-03     2.806867e-03     -9.002650e-02     
2.396957e-01     1.781491e-01     2.937581e-01     2.949947e-01     3.444106e-01     
3.445218e-01     1.969401e-01     1.953421e-01     -9.431583e-02     2.428277e-01     
1.360649e-01     9.632148e-02     5.362963e-02     9.926986e-02     9.827148e-03     
-2.899072e-02     4.842534e-03     2.408308e-01     2.901776e-01     3.355484e-01     
2.941536e-01     1.794024e-01     1.613115e-01     1.787115e-01     2.383139e-01     
5.165750e-02     3.317235e-01     1.557527e-01     4.988613e-02     2.721695e-01     
-1.785075e-01     -9.245495e-02     -1.294905e-01     -4.259460e-02     -9.746187e-02     
-1.428054e-01     -1.061380e-01     -3.136316e-02     2.375941e-01     6.341390e-02     
-1.495335e-01     -9.022320e-02     -4.481126e-02     -7.890762e-02     -1.315150e-01     
3.313243e-01     2.142534e-01     2.924883e-01     2.013016e-01     8.889247e-02     
1.805366e-01     7.511149e-02     8.222970e-02     3.064936e-01     -2.042522e-01     
1.242502e-01     1.951654e-01     1.283477e-01     -2.639060e-02     -3.352824e-02     
1.341087e-04     -8.291304e-02     -1.278330e-01     2.415824e-01     1.329907e-01     
6.881271e-03     3.235745e-01     3.235405e-02     8.691461e-02     2.044423e-01     


0      
0      0      0      0      0      0      0      0      0      0      
0      0      0      0      0      0      0      0      0      0      
0      0      0      0      0      0      0      0      0      0      
0      0      0      0      0      0      0      0      0      0      
0      0      0      0      0      0      0      0      0      0      
0      0      0      0      0      0      0      0      0      0      
0      0      0      0      0      0      0      0      0      0      
0      0      0      0      0      0      0      0      0      0      
0      0      0      0      0      0      0      0      0      0      
0      0      0      0      0      0      0      0      0      0      
0      0      0      0      0      0      0      0      0      0      
0      0      0      0      0      0      0      0      0      0      
0      0      0      0      0      0      0      0      0      0      
0      0      0      0      0      0      0      0      0      0      
0      0      0      0      0      0      0      0      0      0      
0      0      0      0      0      0      0      0      0      0      
0      0      0      0      0      0      0      0      0      0      
0      0      0      0      0      0      0      0      0      0      
0      0      0      0      0      0      0      0      0      0      
0      0      0      0      0      0      0      0      0      0      
0      0      0      0      0      0      0      0      0      0      
0      0      0      0      0      0      0      0      0      0      
0      0      0      0      0      0      0      0      0      0      
0      0      0      1      1      1      1      1      1      1      
1      1      1      1      1      1      1      1      1      1      
1      1      1      1      1      1      1      1      1      1      
1      1      1      1      1      1      1      1      1      1      
1      1      1      1      1      1      1      1      1      1      
1      1      1      1      1      1      1      1      1      1      
1      1      1      1      1      1      1      1      1      1      
1      1      1      1      1      1      1      1      1      1      
1      1      1      1      1      1      1      1      1      1      
1      1      1      1      1      1      1      1      1      1      
1      1      1      1      1      1      1      1      1      1      
1      1      1      1      1      1      1      1      1      1      
1      1      1      1      1      1      1      1      1      1      
1      1      1      1      1      1      1      1      1      1      
1      1      1      1      1      1      1      1      1      1      
1      1      1      1      1      1      1      1      1      

1      3      4      20      
4      3      1      2      
4      5      6      20      
6      5      4      7      
7      6      5      18      
8      9      10      25      
10      9      8      11      
8      11      9      28      
12      11      13      28      
13      11      12      7      
12      13      7      18      
14      15      16      23      
16      15      14      17      
17      16      15      28      
17      18      13      28      
13      18      17      6      
6      13      18      7      
6      18      17      20      
13      18      12      28      
7      12      18      5      
5      18      6      20      
12      18      5      35      
19      20      17      47      
17      20      19      6      
6      20      19      1      
17      20      18      47      
1      20      19      21      
6      20      1      4      
5      18      20      50      
5      20      4      3      
3      20      1      30      
5      20      3      64      
21      1      20      30      
21      20      19      55      
22      23      16      31      
16      23      22      14      
16      23      15      31      
24      25      26      48      
26      25      24      8      
8      26      25      10      
8      25      24      28      
10      25      9      27      
27      25      9      67      
8      9      25      28      
8      28      24      16      
16      8      28      13      
16      28      24      31      
24      28      25      31      
13      8      28      11      
13      28      16      17      
25      28      9      60      
29      28      12      72      
12      28      29      9      
9      12      28      11      
9      28      29      60      
12      28      18      72      
17      18      28      15      
21      30      20      55      
3      20      30      64      
25      31      28      60      
24      31      25      48      
28      31      16      15      
24      16      31      22      
15      31      23      77      
15      28      31      49      
32      33      34      71      
34      33      32      35      
35      34      33      50      
35      33      32      72      
38      37      36      64      
36      37      38      34      
38      36      34      50      
42      39      40      29      
40      39      42      41      
42      40      41      67      
39      40      29      72      
42      29      40      60      
32      43      39      72      
39      43      32      44      
44      39      43      46      
44      43      32      71      
15      47      18      49      
18      47      15      17      
18      47      20      50      
19      20      47      55      
25      48      31      88      
15      49      31      77      
28      31      49      60      
28      49      15      18      
18      28      49      72      
47      49      15      77      
18      49      47      50      
36      50      38      64      
34      38      50      35      
34      50      36      33      
33      36      34      71      
33      50      36      61      
35      38      50      5      
35      50      33      72      
20      50      47      82      
38      50      5      64      
35      5      50      18      
5      50      20      64      
43      45      51      70      
51      45      43      46      
43      51      46      39      
43      51      40      91      
40      51      43      39      
39      43      40      72      
20      55      30      64      
21      30      55      57      
55      57      58      84      
58      57      55      30      
30      55      58      64      
28      60      49      72      
31      49      60      68      
9      25      60      67      
29      60      42      9      
9      60      42      67      
29      60      28      72      
31      60      25      88      
50      61      33      49      
36      33      61      90      
36      61      50      82      
49      50      61      47      
49      33      50      72      
49      61      33      90      
20      55      64      82      
58      64      55      82      
30      64      58      62      
36      50      64      82      
5      64      3      38      
20      64      50      82      
38      64      3      63      
38      64      63      37      
3      63      64      62      
3      64      30      62      
63      64      62      58      
58      63      64      65      
37      64      63      65      
36      64      37      65      
58      65      54      63      
54      65      58      52      
52      54      65      53      
52      65      58      66      
53      65      52      66      
64      65      36      58      
58      36      64      82      
58      65      36      80      
63      37      65      54      
58      52      66      76      
58      66      65      80      
40      67      42      60      
9      67      42      27      
25      60      67      88      
40      67      60      88      
31      68      60      69      
49      60      68      91      
49      68      31      77      
69      68      60      91      
31      69      60      88      
43      70      51      91      
45      51      70      75      
33      36      71      90      
32      33      71      43      
33      71      43      90      
32      33      43      72      
29      39      72      32      
29      72      40      60      
40      72      43      91      
29      32      72      35      
49      72      60      91      
18      72      49      50      
49      33      72      90      
18      72      50      35      
18      72      35      12      
29      35      72      12      
43      72      33      90      
61      73      49      77      
49      73      61      74      
74      49      73      79      
74      61      49      90      
74      73      61      87      
58      76      66      84      
73      77      61      89      
49      61      77      47      
49      77      73      79      
47      77      15      89      
61      77      47      89      
49      68      77      79      
77      79      68      86      
49      68      79      70      
73      79      77      86      
70      79      49      74      
68      70      49      91      
68      79      70      85      
49      70      74      91      
66      80      58      81      
58      81      80      36      
58      66      81      84      
81      80      36      61      
61      81      80      87      
61      36      81      82      
61      80      36      90      
81      82      36      58      
61      82      81      89      
58      81      82      55      
50      82      61      47      
81      82      55      89      
58      81      55      84      
47      82      61      89      
47      20      82      55      
47      55      82      89      
59      84      56      55      
56      84      59      83      
57      84      55      56      
56      55      57      21      
79      85      68      86      
70      68      85      69      
68      69      70      91      
68      86      85      78      
68      86      78      77      
61      87      80      74      
74      80      61      90      
81      87      61      89      
61      87      73      89      
40      60      72      91      
60      88      69      40      
40      69      60      91      
72      90      43      91      
49      90      72      91      
74      90      49      91      
43      91      90      74      
74      91      70      43      
2      3       4      2      
1      2       4      1      
5      7       4      5      
7      6       4      7      
9      10       11      9      
10      8       11      10      
11      13       7      11      
12      11       7      12      
17      16       14      17      
6      13       17      6      
7      13       6      7      
12      7       5      12      
6      17       19      6      
6      19       1      6      
4      6       1      4      
5      4       3      5      
21      1       19      21      
14      16       22      14      
8      26       24      8      
27      10       9      27      
10      26       8      10      
16      8       24      16      
13      8       16      13      
9      12       29      9      
9      11       12      9      
11      8       13      11      
17      13       16      17      
16      24       22      16      
35      34       32      35      
38      37       34      38      
42      39       41      42      
42      29       39      42      
44      39       32      44      
35      38       34      35      
35      5       38      35      
9      29       42      9      
38      5       3      38      
3      63       38      3      
38      63       37      38      
63      54       37      63      
27      9       42      27      
29      32       39      29      
29      35       32      29      
12      35       29      12      
12      5       35      12      
46      39       44      46      
45      51       46      45      
45      75       51      45      
79      85       70      79      
79      86       85      79      
85      86       78      85      
70      75       45      70      
10      25       26      10      
27      25       10      27      
39      40       41      39      
25      48       26      25      
46      51       39      46      
39      51       40      39      
67      42       41      67      
40      67       41      40      
27      42       67      27      
27      67       25      27      
70      85       69      70      
51      75       70      51      
40      88       67      40      
69      88       40      69      
25      88       48      25      
25      67       88      25      
51      91       40      51      
70      91       51      70      
40      91       69      40      
70      69       91      70      
37      36       34      37      
43      45       46      43      
44      43       46      44      
52      53       54      52      
53      65       54      53      
36      37       65      36      
37      54       65      37      
66      65       53      66      
43      70       45      43      
36      71       34      36      
32      34       71      32      
44      32       71      44      
71      43       44      71      
74      79       70      74      
73      79       74      73      
66      80       65      66      
81      80       66      81      
65      80       36      65      
43      74       70      43      
80      87       74      80      
87      80       81      87      
87      73       74      87      
74      90       80      74      
80      90       36      80      
36      90       71      36      
71      90       43      71      
43      90       74      43      
22      23       14      22      
24      31       22      24      
31      23       22      31      
48      24       26      48      
48      31       24      48      
69      68       31      69      
78      77       68      78      
68      77       31      68      
31      77       23      31      
69      85       68      69      
68      85       78      68      
48      88       31      48      
88      69       31      88      
14      15       17      14      
14      23       15      14      
15      47       17      15      
19      17       47      19      
56      55       59      56      
23      77       15      23      
56      59       83      56      
81      84       55      81      
78      86       77      78      
86      79       73      86      
77      86       73      77      
47      55       19      47      
55      84       59      55      
47      89       55      47      
15      89       47      15      
77      89       15      77      
73      89       77      73      
89      81       55      89      
87      89       73      87      
66      84       81      66      
84      83       59      84      
81      89       87      81      
3      2       1      3      
21      30       1      21      
1      30       3      1      
21      55       56      21      
21      19       55      21      
57      58       30      57      
21      56       57      21      
21      57       30      21      
30      58       62      30      
3      62       63      3      
30      62       3      30      
63      62       58      63      
54      63       58      54      
52      54       58      52      
52      66       53      52      
76      66       52      76      
58      76       52      58      
76      84       66      76      
84      76       58      84      
56      84       57      56      
83      84       56      83      
57      84       58      57      
