title = " tecplot file for process Mesh " 
variables = "x",  "y", "z", "cell_type" 
zone N = 100 E = 411 DATAPACKING = BLOCK,  VARLOCATION = ([4]=CELLCENTERED), ZONETYPE=FETETRAHEDRON 
-2.000000e-01     
-2.448213e-01     -2.357547e-01     -3.000000e-01     5.080864e-02     0.000000e+00     
-3.540247e-02     -1.355271e-01     -1.456890e-01     -1.000000e-01     -4.722246e-02     
-5.000000e-01     -5.000000e-01     -4.296631e-01     -5.000000e-01     -4.306243e-01     
-5.000000e-01     -4.184488e-01     -5.000000e-01     -5.000000e-01     -4.000000e-01     
-3.434496e-01     -3.393101e-01     -4.194518e-01     -5.000000e-01     -4.027380e-01     
-4.187052e-01     -1.741321e-01     -2.243650e-01     -2.632082e-01     -2.323866e-01     
-2.759888e-01     -7.986896e-02     -6.867730e-02     -9.001806e-02     -9.600407e-03     
1.355498e-01     9.603820e-02     1.950377e-01     9.913592e-02     5.342889e-02     
4.852548e-03     9.838253e-03     -2.876668e-02     -3.431829e-01     -2.920560e-01     
-3.347548e-01     1.477181e-01     1.489808e-01     7.682920e-02     -2.392707e-01     
-3.007907e-01     -3.283464e-01     -4.144943e-01     -1.286198e-01     -1.770669e-01     
-1.633102e-01     7.451989e-03     -6.099103e-02     -4.235672e-01     -4.166970e-01     
-1.653230e-01     -1.185787e-01     -1.905174e-01     -1.608440e-01     7.343925e-04     
-3.122635e-01     -4.291954e-01     -7.212862e-02     -2.833985e-01     -2.294137e-01     
-3.323717e-01     -3.493834e-01     -2.491532e-01     -8.912863e-02     -7.803892e-02     
-9.244673e-02     -1.957749e-01     -3.356850e-01     -2.636471e-02     -1.294957e-01     
-2.062115e-01     -9.680503e-02     3.383085e-02     -1.376859e-01     -2.343745e-01     
-3.031029e-01     -2.331233e-01     -2.291930e-01     -1.874367e-01     -1.280405e-01     
-1.442420e-01     -5.282128e-02     3.991298e-02     -1.478879e-01     -1.660979e-01     
-1.194042e-01     -3.380982e-01     -2.607704e-01     4.158654e-03     
-5.000000e-01     
-4.128339e-01     -5.000000e-01     -5.000000e-01     -4.172929e-01     -5.000000e-01     
-5.000000e-01     -5.000000e-01     -4.120807e-01     -5.000000e-01     -4.148621e-01     
-4.306860e-01     -5.000000e-01     -4.299559e-01     -4.000000e-01     -5.000000e-01     
-5.000000e-01     -5.000000e-01     -4.186464e-01     -5.000000e-01     -5.000000e-01     
-4.169262e-01     -5.000000e-01     -3.962650e-01     -3.394627e-01     -3.377795e-01     
-3.892317e-01     -5.000000e-01     -4.128116e-01     -5.000000e-01     -5.000000e-01     
-4.074786e-01     -4.108879e-01     -5.000000e-01     -3.251517e-01     -4.042089e-01     
-2.490832e-01     -2.829525e-01     -3.295884e-01     -3.361127e-01     -2.636618e-01     
-3.335169e-01     -2.789418e-01     -2.396465e-01     -3.086997e-01     -3.285486e-01     
-2.597711e-01     -3.607857e-01     -4.166559e-01     -4.238832e-01     -2.256248e-01     
-2.185713e-01     -1.703180e-01     -2.341118e-01     -2.324369e-01     -2.035081e-01     
-1.524627e-01     -1.273732e-01     -1.330497e-01     -3.085903e-01     -1.607188e-01     
-4.109369e-01     -5.000000e-01     -3.214590e-01     -3.631789e-01     -3.722498e-01     
-4.037477e-01     -2.896969e-01     -1.945857e-01     -2.712165e-01     -2.894801e-01     
-5.000000e-01     -4.245095e-01     -1.701404e-01     -9.786223e-02     -3.153887e-01     
-3.773884e-01     -3.219500e-01     -1.982943e-01     -9.755535e-02     -1.719767e-01     
-2.943064e-01     -2.902955e-01     -1.850756e-01     -3.223109e-01     -2.038090e-01     
-1.442318e-01     -7.266438e-02     -1.007283e-01     -2.340197e-01     -2.411671e-01     
-6.870312e-02     -2.126662e-01     -2.741064e-01     -2.798202e-01     -1.382190e-01     
-2.301124e-01     -3.355631e-01     -3.530604e-01     -1.960583e-01     
5.000000e-01     
5.000000e-01     4.144218e-01     5.000000e-01     5.000000e-01     5.000000e-01     
4.167737e-01     4.138702e-01     5.000000e-01     5.000000e-01     5.000000e-01     
4.300588e-01     5.000000e-01     5.000000e-01     5.000000e-01     4.301194e-01     
4.000000e-01     3.445218e-01     3.444106e-01     3.000000e-01     5.000000e-01     
5.000000e-01     4.034895e-01     3.925728e-01     4.032489e-01     5.000000e-01     
2.949947e-01     3.272128e-01     3.590610e-01     3.355484e-01     2.408308e-01     
2.901776e-01     3.860812e-01     3.275999e-01     5.000000e-01     3.008586e-01     
5.000000e-01     4.229714e-01     5.000000e-01     5.000000e-01     5.000000e-01     
5.000000e-01     4.185878e-01     5.000000e-01     4.093148e-01     5.000000e-01     
5.000000e-01     4.195762e-01     5.000000e-01     3.959635e-01     5.000000e-01     
4.172024e-01     5.000000e-01     5.000000e-01     5.000000e-01     4.094829e-01     
5.000000e-01     3.985726e-01     5.000000e-01     3.317235e-01     4.172066e-01     
2.721695e-01     2.383139e-01     5.000000e-01     4.157754e-01     4.146318e-01     
4.058960e-01     4.284827e-01     4.150753e-01     2.924883e-01     4.127837e-01     
2.941536e-01     3.313243e-01     3.292783e-01     3.900303e-01     4.012171e-01     
3.064936e-01     3.169228e-01     3.139937e-01     2.826959e-01     3.004067e-01     
2.013016e-01     3.097256e-01     3.231689e-01     3.604415e-01     2.415824e-01     
1.951654e-01     2.410548e-01     1.473061e-01     3.266710e-01     2.299416e-01     
3.061934e-01     3.279381e-01     2.813638e-01     4.327534e-01     2.175688e-01     
3.643884e-01     3.235745e-01     2.044423e-01     2.633477e-01     

0      
0      0      0      0      0      0      0      0      0      0      
0      0      0      0      0      0      0      0      0      0      
0      0      0      0      0      0      0      0      0      0      
0      0      0      0      0      0      0      0      0      0      
0      0      0      0      0      0      0      0      0      0      
0      0      0      0      0      0      0      0      0      0      
0      0      0      0      0      0      0      0      0      0      
0      0      0      0      0      0      0      0      0      0      
0      0      0      0      0      0      0      0      0      0      
0      0      0      0      0      0      0      0      0      0      
0      0      0      0      0      0      0      0      0      0      
0      0      0      0      0      0      0      0      0      0      
0      0      0      0      0      0      0      0      0      0      
0      0      0      0      0      0      0      0      0      0      
0      0      0      0      0      0      0      0      0      0      
0      0      0      0      0      0      0      0      0      0      
0      0      0      0      0      0      0      0      0      0      
0      0      0      0      0      0      0      0      0      0      
0      0      0      0      0      0      0      0      0      0      
0      0      0      0      0      0      0      0      0      0      
0      0      0      0      0      0      0      0      0      0      
0      0      0      0      0      0      0      0      0      0      
0      0      0      0      0      0      0      0      0      0      
0      0      1      1      1      1      1      1      1      1      
1      1      1      1      1      1      1      1      1      1      
1      1      1      1      1      1      1      1      1      1      
1      1      1      1      1      1      1      1      1      1      
1      1      1      1      1      1      1      1      1      1      
1      1      1      1      1      1      1      1      1      1      
1      1      1      1      1      1      1      1      1      1      
1      1      1      1      1      1      1      1      1      1      
1      1      1      1      1      1      1      1      1      1      
1      1      1      1      1      1      1      1      1      1      
1      1      1      1      1      1      1      1      1      1      
1      1      1      1      1      1      1      1      1      1      
1      1      1      1      1      1      1      1      1      1      
1      1      1      1      1      1      1      1      1      1      
1      1      1      1      1      1      1      1      1      1      
1      1      1      1      1      1      1      1      1      1      
1      1      1      1      1      1      1      1      1      1      
1      1      1      1      1      1      1      1      1      1      


1      2      3      9      
3      2      1      4      
4      3      2      67      
8      9      3      65      
3      9      8      1      
1      9      8      10      
3      9      2      65      
10      9      8      33      
6      11      7      5      
7      11      6      10      
10      7      11      33      
5      11      7      66      
12      13      14      16      
14      13      12      15      
15      12      14      24      
16      13      14      21      
12      16      14      24      
12      13      16      17      
12      17      16      24      
18      19      20      27      
20      19      18      17      
18      17      19      24      
14      16      21      22      
22      23      4      67      
4      23      22      21      
22      21      23      16      
16      23      22      24      
14      16      22      24      
12      25      24      15      
24      25      12      19      
12      24      19      17      
18      24      16      17      
16      24      18      23      
23      24      18      73      
14      24      22      26      
22      24      23      67      
26      14      24      15      
26      24      22      45      
18      24      19      27      
19      27      24      60      
18      24      27      73      
28      29      3      30      
3      29      28      8      
8      3      29      65      
8      29      28      33      
30      29      3      67      
28      29      30      32      
32      30      28      31      
28      32      31      62      
30      32      29      67      
28      29      32      62      
8      33      28      34      
34      8      33      7      
34      33      28      77      
29      33      8      65      
28      33      29      77      
7      8      33      10      
7      33      34      36      
10      33      11      9      
7      11      33      66      
8      33      9      65      
9      33      11      35      
35      33      11      76      
9      33      35      65      
34      36      33      77      
40      39      38      48      
38      39      40      37      
40      38      37      41      
41      40      38      42      
42      40      38      66      
42      38      41      43      
42      43      41      44      
44      42      43      76      
42      38      43      66      
26      45      46      47      
46      45      26      22      
22      46      45      67      
47      45      46      71      
40      49      48      50      
48      49      40      39      
51      52      47      71      
47      52      51      53      
53      47      52      54      
53      54      52      61      
55      56      51      95      
51      56      55      57      
57      56      55      69      
24      60      27      98      
28      62      31      63      
63      28      62      77      
29      32      62      78      
29      62      28      77      
64      65      35      95      
35      65      64      9      
9      65      64      2      
35      65      33      76      
2      65      64      71      
2      3      65      29      
29      65      2      71      
3      29      2      67      
33      65      29      85      
42      66      43      76      
42      40      66      5      
5      66      42      11      
11      66      42      76      
11      33      66      76      
30      67      23      73      
23      67      30      3      
3      23      67      4      
2      67      29      71      
4      67      2      22      
22      67      2      46      
23      67      24      73      
22      24      67      45      
46      67      2      71      
46      45      67      71      
24      45      60      98      
60      45      24      68      
24      68      45      26      
58      69      43      93      
43      69      58      44      
44      43      69      76      
44      69      58      59      
59      69      55      44      
55      69      59      57      
57      69      59      75      
55      69      56      95      
57      56      69      75      
44      69      55      95      
59      69      58      75      
70      71      52      90      
52      71      70      45      
45      71      70      98      
45      67      71      98      
46      71      2      64      
46      71      64      51      
64      71      65      95      
51      71      64      95      
46      71      51      47      
56      71      51      95      
51      71      56      52      
52      71      56      90      
72      73      23      18      
23      73      72      30      
30      67      73      32      
24      27      73      98      
24      73      67      98      
58      75      69      93      
11      35      76      42      
69      76      43      93      
44      76      69      95      
65      76      35      95      
33      76      65      85      
28      34      77      63      
29      78      62      77      
32      62      78      99      
32      78      29      98      
83      85      78      90      
78      85      83      77      
77      78      85      29      
77      83      78      82      
77      85      83      76      
77      85      76      33      
83      76      85      97      
65      85      76      95      
77      85      33      29      
74      90      81      86      
81      90      74      56      
56      81      90      97      
56      90      74      52      
86      90      81      91      
74      86      81      96      
74      90      86      70      
70      90      78      71      
78      90      70      82      
82      78      90      83      
82      70      78      99      
82      90      70      86      
82      90      86      91      
70      74      90      52      
71      78      70      98      
71      90      78      85      
56      90      71      95      
85      90      83      97      
71      85      78      29      
71      90      85      95      
90      91      82      83      
81      86      91      96      
81      91      90      83      
81      83      90      97      
81      91      83      93      
83      81      93      97      
80      93      84      100      
84      93      80      58      
58      84      93      43      
58      93      80      75      
69      93      75      97      
75      93      80      81      
75      93      81      97      
76      93      69      97      
90      95      56      97      
85      95      90      97      
71      95      85      65      
56      95      69      97      
44      95      55      35      
76      95      44      35      
69      95      76      97      
55      35      95      64      
35      44      76      42      
64      95      55      51      
71      65      85      29      
76      95      85      97      
92      96      74      81      
74      96      92      88      
88      74      96      86      
88      86      96      87      
88      74      86      87      
88      87      96      89      
83      97      93      76      
81      97      56      75      
69      97      75      56      
45      24      67      98      
29      71      67      98      
32      29      67      98      
67      73      32      98      
82      78      77      62      
62      82      78      99      
84      93      94      100      
94      93      84      43      
78      71      29      98      
70      98      78      32      
32      78      70      99      
70      45      98      79      
2      4       1      2      
4      3       1      4      
1      3       8      1      
2      1       9      2      
9      1       10      9      
1      8       10      1      
11      10       6      11      
10      7       6      10      
6      5       11      6      
13      14       15      13      
13      15       12      13      
13      12       17      13      
16      13       17      16      
17      19       20      17      
18      17       20      18      
21      13       16      21      
13      21       14      13      
21      23       4      21      
22      21       4      22      
21      16       23      21      
14      21       22      14      
12      25       19      12      
23      16       18      23      
26      14       22      26      
15      14       26      15      
16      17       18      16      
12      15       25      12      
17      12       19      17      
8      3       28      8      
28      3       30      28      
28      30       31      28      
34      8       28      34      
7      8       34      7      
10      8       7      10      
9      10       11      9      
9      11       35      9      
40      39       37      40      
41      40       37      41      
42      40       41      42      
44      42       41      44      
22      46       26      22      
47      26       46      47      
40      49       39      40      
53      47       51      53      
53      54       47      53      
57      51       55      57      
63      28       31      63      
9      35       64      9      
2      9       64      2      
5      40       42      5      
5      42       11      5      
3      23       30      3      
4      23       3      4      
22      4       2      22      
22      2       46      22      
57      55       59      57      
59      55       44      59      
2      64       46      2      
46      64       51      46      
46      51       47      46      
30      23       72      30      
18      72       23      18      
55      35       44      55      
64      35       55      64      
64      55       51      64      
35      42       44      35      
35      11       42      35      
34      28       63      34      
39      38       37      39      
49      48       39      49      
48      38       39      48      
49      50       48      49      
43      94       84      43      
84      94       100      84      
37      38       41      37      
41      43       44      41      
38      43       41      38      
44      58       59      44      
43      58       44      43      
58      80       75      58      
58      84       80      58      
58      43       84      58      
100      80       84      100      
5      6       7      5      
7      34       36      7      
7      36       33      7      
38      48       40      38      
66      43       38      66      
40      66       38      40      
66      40       5      66      
66      5       7      66      
33      66       7      33      
66      76       43      66      
76      66       33      76      
62      77       63      62      
34      77       36      34      
63      77       34      63      
36      77       33      36      
82      83       77      82      
83      76       77      83      
76      33       77      76      
91      82       86      91      
82      91       83      82      
81      80       93      81      
81      93       91      81      
91      93       83      91      
76      93       43      76      
83      93       76      83      
92      96       88      92      
96      92       81      96      
91      96       81      91      
96      91       86      96      
87      96       86      87      
88      96       89      88      
89      96       87      89      
50      49       40      50      
48      50       40      48      
43      93       94      43      
80      100       93      80      
94      93       100      94      
19      27       20      19      
20      27       18      20      
30      32       31      30      
19      60       27      19      
31      62       63      31      
32      62       31      32      
30      72       73      30      
30      73       32      30      
73      72       18      73      
27      73       18      27      
70      86       82      70      
82      77       62      82      
73      98       32      73      
32      98       70      32      
60      98       27      60      
98      73       27      98      
32      99       62      32      
62      99       82      62      
70      99       32      70      
99      70       82      99      
25      24       19      25      
26      24       15      26      
15      24       25      15      
45      26       47      45      
51      52       53      51      
54      52       47      54      
56      51       57      56      
51      56       52      51      
60      19       24      60      
52      61       53      52      
54      61       52      54      
61      54       53      61      
45      60       68      45      
45      68       26      45      
24      68       60      24      
26      68       24      26      
71      52       45      71      
52      70       45      52      
52      71       47      52      
56      74       52      56      
58      75       59      58      
75      57       59      75      
70      52       74      70      
45      70       79      45      
56      81       74      56      
75      81       56      75      
70      74       86      70      
87      86       74      87      
75      80       81      75      
74      81       92      74      
88      74       92      88      
71      45       47      71      
75      56       57      75      
45      98       60      45      
70      98       79      70      
79      98       45      79      
88      89       87      88      
88      87       74      88      
