title = " tecplot file for process Mesh " 
variables = "x",  "y", "z", "cell_type" 
zone N = 86 E = 376 DATAPACKING = BLOCK,  VARLOCATION = ([4]=CELLCENTERED), ZONETYPE=FETETRAHEDRON 
-5.000000e-01     
-4.107988e-01     -5.000000e-01     -5.000000e-01     -4.175553e-01     -5.000000e-01     
-5.000000e-01     -5.000000e-01     -5.000000e-01     -4.000277e-01     -5.000000e-01     
-4.144103e-01     -5.000000e-01     -5.000000e-01     -5.000000e-01     -4.286001e-01     
-5.000000e-01     -4.124731e-01     -4.061858e-01     -5.000000e-01     -3.356435e-01     
-5.000000e-01     -4.112100e-01     -3.331898e-01     -4.171813e-01     -4.172115e-01     
-4.012287e-01     -2.513119e-01     -2.995243e-01     -3.207404e-01     -3.265207e-01     
-2.122135e-01     -2.236791e-01     -1.616496e-01     -1.216309e-01     -1.213131e-01     
-7.023525e-02     -1.720731e-01     -3.081379e-02     -2.228654e-01     -2.372702e-01     
-2.592530e-01     -2.171179e-01     -2.469646e-01     -3.000968e-01     -3.093621e-01     
-8.869461e-02     -1.136391e-01     1.007085e-02     -5.419015e-02     -1.098876e-01     
4.238882e-03     5.683595e-02     -4.179853e-01     -4.012225e-01     -3.352787e-01     
-2.291413e-01     -3.065244e-01     -3.252054e-01     -2.073977e-01     -3.195370e-01     
-3.846262e-01     -1.549392e-01     -1.948314e-01     -3.270501e-01     -1.720812e-01     
-3.373271e-01     -2.990160e-01     -8.321667e-02     -1.976659e-01     -1.941556e-01     
1.586663e-02     -1.493282e-02     -8.676880e-02     -1.074120e-01     -1.728598e-01     
-1.801793e-02     -2.682389e-01     -2.358085e-01     -1.961513e-01     -2.707177e-01     
-2.368652e-01     -1.060894e-01     -5.759796e-02     -1.488294e-01     -2.668339e-01     

-1.000000e-01     
-1.445889e-01     -1.336441e-01     -2.000000e-01     1.440526e-01     1.370172e-01     
2.000000e-01     1.000000e-01     0.000000e+00     -3.358090e-02     -3.315300e-02     
-2.460605e-01     -3.000000e-01     -2.341010e-01     5.141707e-02     5.547660e-02     
-1.702994e-01     -2.213850e-01     2.371462e-02     5.287977e-02     7.334503e-02     
-6.462224e-02     -7.713979e-02     1.874109e-01     1.828131e-01     2.439914e-01     
1.111513e-01     -1.495234e-01     -1.488034e-01     -9.988136e-02     -1.970054e-01     
-1.187031e-01     -6.364693e-02     -1.429388e-01     6.950034e-02     1.219470e-01     
1.495979e-01     1.467428e-01     5.268583e-02     1.732658e-01     2.365756e-01     
1.364789e-01     4.358733e-02     -1.137681e-02     -1.407082e-02     1.324116e-01     
2.957717e-02     -3.345468e-02     -4.619670e-02     -1.388053e-01     -1.722127e-01     
-1.099696e-01     -1.449067e-01     -1.576366e-01     -1.330280e-01     2.353282e-01     
-2.395921e-01     -2.464302e-01     -6.026705e-02     7.716463e-02     4.286206e-02     
9.940011e-02     -4.088278e-02     -2.103986e-01     -2.398524e-01     -1.627495e-01     
-1.147359e-01     -1.382256e-02     -8.937836e-02     -4.889083e-02     9.643864e-03     
-9.070212e-02     4.256697e-03     -9.009057e-02     5.526841e-02     1.322244e-01     
-2.307170e-02     -1.092280e-01     -2.285682e-01     -7.867744e-02     6.984407e-02     
-1.330900e-01     -4.147658e-03     1.039844e-01     4.590105e-02     -8.901062e-02     

-5.000000e-01     
-5.000000e-01     -4.148846e-01     -5.000000e-01     -5.000000e-01     -4.174195e-01     
-5.000000e-01     -5.000000e-01     -5.000000e-01     -5.000000e-01     -4.181727e-01     
-5.000000e-01     -5.000000e-01     -4.144987e-01     -4.334662e-01     -5.000000e-01     
-3.283546e-01     -3.592049e-01     -3.978846e-01     -3.420148e-01     -5.000000e-01     
-3.308520e-01     -3.879698e-01     -5.000000e-01     -3.866538e-01     -5.000000e-01     
-3.041262e-01     -5.000000e-01     -4.205582e-01     -5.000000e-01     -5.000000e-01     
-4.178016e-01     -5.000000e-01     -5.000000e-01     -5.000000e-01     -4.168171e-01     
-5.000000e-01     -5.000000e-01     -5.000000e-01     -4.093704e-01     -5.000000e-01     
-5.000000e-01     -5.000000e-01     -4.174976e-01     -5.000000e-01     -4.068440e-01     
-4.156847e-01     -5.000000e-01     -5.000000e-01     -5.000000e-01     -4.121949e-01     
-4.079644e-01     -5.000000e-01     -4.158507e-01     -2.917118e-01     -3.425590e-01     
-5.000000e-01     -4.178749e-01     -4.167946e-01     -4.091550e-01     -4.162048e-01     
-4.336902e-01     -4.128204e-01     -4.182626e-01     -3.274051e-01     -3.188502e-01     
-3.490430e-01     -3.263607e-01     -3.510303e-01     -2.167022e-01     -3.232020e-01     
-2.713885e-01     -3.071596e-01     -2.447248e-01     -2.669173e-01     -3.175967e-01     
-3.937222e-01     -2.951861e-01     -3.265814e-01     -3.390820e-01     -3.451845e-01     
-2.108879e-01     -3.342696e-01     -3.402914e-01     -3.722202e-01     -3.705798e-01     


0      
0      0      0      0      0      0      0      0      0      0      
0      0      0      0      0      0      0      0      0      0      
0      0      0      0      0      0      0      0      0      0      
0      0      0      0      0      0      0      0      0      0      
0      0      0      0      0      0      0      0      0      0      
0      0      0      0      0      0      0      0      0      0      
0      0      0      0      0      0      0      0      0      0      
0      0      0      0      0      0      0      0      0      0      
0      0      0      0      0      0      0      0      0      0      
0      0      0      0      0      0      0      0      0      0      
0      0      0      0      0      0      0      0      0      0      
0      0      0      0      0      0      0      0      0      0      
0      0      0      0      0      0      0      0      0      0      
0      0      0      0      0      0      0      0      0      0      
0      0      0      0      0      0      0      0      0      0      
0      0      0      0      0      0      0      0      0      0      
0      0      0      0      0      0      0      0      0      0      
0      0      0      0      0      0      0      0      0      0      
0      0      0      0      0      0      0      0      0      0      
0      0      0      0      0      0      0      0      0      0      
0      0      0      0      0      0      0      0      0      0      
0      0      0      0      0      0      0      0      0      0      
0      0      0      0      0      0      0      0      0      0      
0      0      0      1      1      1      1      1      1      1      
1      1      1      1      1      1      1      1      1      1      
1      1      1      1      1      1      1      1      1      1      
1      1      1      1      1      1      1      1      1      1      
1      1      1      1      1      1      1      1      1      1      
1      1      1      1      1      1      1      1      1      1      
1      1      1      1      1      1      1      1      1      1      
1      1      1      1      1      1      1      1      1      1      
1      1      1      1      1      1      1      1      1      1      
1      1      1      1      1      1      1      1      1      1      
1      1      1      1      1      1      1      1      1      1      
1      1      1      1      1      1      1      1      1      1      
1      1      1      1      1      1      1      1      1      1      
1      1      1      1      1      1      1      1      1      1      
1      1      1      1      1      

1      2      3      23      
3      2      1      4      
4      3      2      54      
5      6      7      25      
7      6      5      8      
5      8      6      62      
9      10      11      19      
11      10      9      1      
1      11      10      23      
12      14      4      54      
4      14      12      13      
15      8      16      62      
16      8      15      9      
15      16      9      19      
11      19      10      23      
9      10      19      16      
9      19      11      15      
10      19      16      21      
15      19      11      20      
16      19      15      62      
20      19      11      22      
15      19      20      62      
21      19      16      62      
10      19      21      61      
11      22      19      23      
22      23      3      17      
3      23      22      11      
11      3      23      1      
10      23      19      59      
1      23      10      2      
2      23      10      59      
17      23      3      54      
5      26      25      7      
25      26      5      24      
5      25      24      62      
6      25      5      62      
28      29      30      32      
30      29      28      31      
31      30      29      54      
31      29      28      57      
28      32      33      34      
33      32      28      30      
30      33      32      59      
30      32      29      59      
28      29      32      64      
34      32      33      63      
28      32      34      64      
35      36      37      39      
37      36      35      38      
38      36      35      60      
35      36      39      47      
42      41      40      24      
40      41      42      38      
42      40      38      60      
42      24      40      46      
43      44      45      61      
45      44      43      33      
33      45      44      59      
33      44      43      63      
24      46      42      21      
21      24      46      62      
21      46      42      61      
40      46      24      56      
42      46      40      60      
35      47      39      48      
48      35      47      63      
48      47      39      49      
35      36      47      85      
49      48      47      77      
49      52      50      77      
50      52      49      53      
23      54      17      55      
3      17      54      14      
3      54      23      2      
17      54      14      18      
3      14      54      4      
17      54      18      55      
14      18      54      12      
31      54      2      30      
2      54      31      12      
12      2      54      4      
12      54      31      58      
18      54      12      58      
54      55      23      67      
18      55      54      67      
24      56      46      25      
25      46      24      62      
18      54      58      29      
31      58      54      29      
18      29      58      65      
18      54      29      67      
29      31      58      57      
29      30      59      54      
29      59      32      86      
33      32      59      44      
33      59      30      45      
32      44      33      63      
32      59      44      86      
30      45      59      10      
45      44      59      61      
19      59      23      68      
10      59      19      61      
45      59      10      61      
30      10      59      2      
2      59      30      54      
23      59      2      54      
23      59      54      67      
54      59      29      67      
40      60      46      81      
42      46      60      61      
42      60      38      43      
43      42      60      61      
43      60      38      35      
38      60      40      36      
36      60      40      76      
43      60      35      63      
35      60      36      85      
43      61      60      44      
44      60      43      63      
44      61      60      81      
42      61      43      21      
21      61      43      45      
21      61      45      10      
21      46      61      62      
46      60      61      81      
44      59      61      68      
19      61      59      68      
21      61      19      62      
46      62      25      27      
27      46      62      61      
27      62      25      6      
19      62      61      27      
27      19      62      20      
27      61      19      68      
27      46      61      81      
27      62      6      20      
6      20      62      15      
5      62      24      21      
21      5      62      16      
16      5      62      8      
8      62      15      6      
51      63      34      50      
34      63      51      32      
32      51      34      64      
32      63      51      80      
48      63      33      43      
33      63      48      34      
34      63      48      50      
32      44      63      80      
48      63      43      35      
48      63      47      77      
35      47      63      85      
35      63      60      85      
44      60      63      71      
29      64      58      79      
58      64      29      57      
57      64      29      28      
28      57      64      34      
29      32      64      79      
32      51      64      66      
29      58      65      79      
29      65      18      67      
32      51      66      80      
32      66      64      79      
29      65      67      79      
29      67      59      86      
59      67      23      68      
59      67      68      86      
44      59      68      86      
44      68      61      81      
50      52      69      77      
69      52      50      51      
50      69      51      63      
63      69      51      80      
50      69      63      77      
69      72      73      77      
73      72      69      74      
74      69      73      83      
72      77      69      52      
73      69      77      83      
63      77      48      50      
47      77      63      83      
49      48      77      50      
32      79      29      86      
66      79      32      86      
67      79      78      86      
78      79      67      65      
29      79      67      86      
69      80      66      51      
66      80      69      74      
74      66      80      82      
74      80      69      83      
32      80      66      86      
44      63      80      71      
44      80      32      86      
71      80      44      68      
63      80      71      83      
71      80      68      70      
44      68      80      86      
44      71      68      81      
60      76      81      40      
81      76      60      71      
60      71      76      85      
60      81      71      44      
27      81      61      68      
78      82      80      66      
80      82      78      70      
70      80      82      74      
70      78      80      68      
66      80      78      86      
74      83      73      75      
71      83      75      85      
75      83      71      70      
70      75      83      74      
70      83      71      80      
70      74      83      80      
69      83      80      63      
71      63      83      85      
63      69      83      77      
73      83      77      84      
83      84      75      85      
75      84      83      73      
60      85      76      36      
36      85      76      84      
76      85      71      75      
60      71      85      63      
76      85      75      84      
84      85      83      47      
47      85      83      63      
36      47      85      84      
83      84      47      77      
80      68      78      86      
78      86      68      67      
66      86      78      79      
12      13       4      12      
7      26       5      7      
7      5       8      7      
12      4       2      12      
2      4       1      2      
2      1       10      2      
10      1       9      10      
8      5       16      8      
8      16       9      8      
9      16       10      9      
5      26       24      5      
16      5       21      16      
21      5       24      21      
12      2       31      12      
2      10       30      2      
2      30       31      2      
10      16       21      10      
30      10       45      30      
45      10       21      45      
31      30       28      31      
31      28       57      31      
21      24       42      21      
42      24       41      42      
34      57       28      34      
42      41       38      42      
30      45       33      30      
30      33       28      30      
21      42       43      21      
21      43       45      21      
33      45       43      33      
28      33       34      28      
43      42       38      43      
38      37       35      38      
35      37       39      35      
43      38       35      43      
33      43       48      33      
48      43       35      48      
34      33       48      34      
50      34       48      50      
53      50       49      53      
49      50       48      49      
48      35       39      48      
49      48       39      49      
13      14       4      13      
6      7       8      6      
4      14       3      4      
4      3       1      4      
1      3       11      1      
1      11       9      1      
6      8       15      6      
15      8       9      15      
15      9       11      15      
6      15       20      6      
3      14       17      3      
11      3       22      11      
22      3       17      22      
15      11       20      15      
11      22       20      11      
22      19       20      22      
23      19       22      23      
17      23       22      17      
25      7       6      25      
6      20       27      6      
6      27       25      6      
17      55       23      17      
20      19       27      20      
46      56       25      46      
46      25       27      46      
55      67       23      55      
65      67       18      65      
18      67       55      18      
19      68       27      19      
23      68       19      23      
67      68       23      67      
68      70       71      68      
72      73       74      72      
70      75       71      70      
76      71       75      76      
78      67       65      78      
78      70       68      78      
67      78       68      67      
27      68       81      27      
71      81       68      71      
76      81       71      76      
40      81       76      40      
46      81       40      46      
81      46       27      81      
78      82       70      78      
74      75       70      74      
76      84       36      76      
75      84       76      75      
56      46       40      56      
76      36       40      76      
74      73       75      74      
26      25       24      26      
25      26       7      25      
41      40       38      41      
24      40       41      24      
56      24       25      56      
40      24       56      40      
14      13       12      14      
17      14       18      17      
14      12       18      14      
17      18       55      17      
57      58       31      57      
18      12       58      18      
12      31       58      12      
64      58       57      64      
18      58       65      18      
79      78       65      79      
65      58       79      65      
64      79       58      64      
50      51       34      50      
52      50       53      52      
64      57       34      64      
51      64       34      51      
50      52       51      50      
51      66       64      51      
52      69       51      52      
69      72       74      69      
72      69       52      72      
78      79       66      78      
66      79       64      66      
66      69       74      66      
69      66       51      69      
66      74       82      66      
74      70       82      74      
66      82       78      66      
36      37       38      36      
40      36       38      40      
37      36       39      37      
36      47       39      36      
39      47       49      39      
49      52       53      49      
72      77       73      72      
77      72       52      77      
47      77       49      47      
77      52       49      77      
73      84       75      73      
47      84       77      47      
36      84       47      36      
77      84       73      77      
