title = " tecplot file for process Mesh " 
variables = "x",  "y", "z", "cell_type" 
zone N = 99 E = 413 DATAPACKING = BLOCK,  VARLOCATION = ([4]=CELLCENTERED), ZONETYPE=FETETRAHEDRON 
4.200367e-02     
-9.031392e-03     -5.995058e-02     -9.147264e-03     -9.207013e-03     -6.869719e-02     
5.022342e-02     -2.601134e-01     -2.758446e-01     -2.361093e-01     -1.509501e-01     
-1.066632e-01     -5.733944e-02     -1.650390e-01     -1.174383e-01     -1.185787e-01     
-2.145795e-01     -2.248305e-01     -2.019927e-01     -2.301975e-01     1.501960e-01     
1.014158e-01     -5.767558e-03     -4.244873e-03     5.037238e-02     1.180346e-01     
9.917837e-02     -1.286335e-01     -1.173383e-01     -1.634307e-01     7.397752e-02     
1.312557e-01     1.011689e-01     2.432708e-02     -1.702191e-02     1.987211e-01     
1.016471e-01     -2.952837e-02     -1.449325e-01     -9.388576e-02     4.568436e-02     
-2.274926e-01     -2.042337e-01     1.260943e-01     -2.062115e-01     -1.875370e-01     
-2.463127e-01     -6.117448e-02     -1.584565e-01     -7.505978e-02     3.162134e-02     
-2.044177e-01     -2.008274e-01     -2.745640e-01     -1.869388e-01     -2.956912e-01     
-1.347634e-01     3.693300e-02     1.155761e-01     1.156640e-01     -1.324063e-01     
3.438444e-02     1.088349e-01     -4.118508e-02     3.219331e-02     7.905179e-02     
2.905901e-02     1.158583e-01     -1.957481e-02     5.146898e-02     1.559192e-01     
-6.652962e-02     -2.226762e-01     -2.376792e-01     -3.326272e-01     -2.808388e-01     
-1.160884e-01     -1.283116e-01     -2.391774e-01     -4.619762e-02     -1.466239e-01     
-1.341925e-02     -6.584375e-02     2.622141e-02     1.131434e-01     -8.680247e-03     
-2.383653e-01     -2.703984e-01     -1.455490e-01     -1.324849e-01     -4.579973e-02     
-1.514510e-01     -8.187116e-02     -2.431211e-01     -1.862195e-01     -1.581102e-01     
1.856247e-01     -1.919929e-01     -1.184857e-01     
-5.000000e-01     
-4.167469e-01     -5.000000e-01     -5.000000e-01     -4.028995e-01     -5.000000e-01     
-5.000000e-01     -5.000000e-01     -4.175052e-01     -5.000000e-01     -5.000000e-01     
-4.133069e-01     -5.000000e-01     -5.000000e-01     -4.074352e-01     -5.000000e-01     
-4.137066e-01     -5.000000e-01     -4.140975e-01     -5.000000e-01     -5.000000e-01     
-4.061212e-01     -5.000000e-01     -4.120401e-01     -5.000000e-01     -5.000000e-01     
-4.035043e-01     -5.000000e-01     -3.970053e-01     -5.000000e-01     -4.249799e-01     
-4.017245e-01     -4.219029e-01     -4.183076e-01     -4.125561e-01     -4.032024e-01     
-4.001285e-01     -4.127798e-01     -4.016415e-01     -4.241828e-01     -3.176117e-01     
-4.282821e-01     -2.943101e-01     -2.963745e-01     -2.943064e-01     -4.120794e-01     
-5.000000e-01     -3.252928e-01     -3.293066e-01     -3.593588e-01     -2.891629e-01     
-2.414552e-01     -3.187790e-01     -2.223731e-01     -3.196433e-01     -3.089671e-01     
-3.212259e-01     -3.232240e-01     -3.422400e-01     -3.183128e-01     -3.572651e-01     
-3.293514e-01     -3.193928e-01     -3.454984e-01     -1.878436e-01     -2.734712e-01     
-4.029087e-02     -1.516871e-01     -1.540425e-01     -8.234295e-02     -2.267822e-01     
-5.878848e-02     -1.367538e-01     -1.870477e-01     -2.137908e-01     -9.868880e-02     
-2.767448e-01     -2.562685e-01     -5.227723e-02     -2.431931e-01     -2.178111e-01     
-2.391649e-01     -1.916077e-01     -1.703304e-01     -1.554318e-01     -9.220390e-02     
-2.596275e-01     -2.478608e-01     -2.372986e-01     -1.283313e-01     -1.308397e-01     
-9.010675e-02     -1.737764e-01     -3.723038e-01     -2.027105e-01     -1.642414e-01     
-3.464308e-01     -2.393590e-01     -1.601817e-01     
2.899590e-02     
4.687186e-02     2.759852e-02     8.402114e-02     1.192813e-01     1.365092e-01     
1.373134e-01     5.362963e-02     9.827148e-03     -2.899072e-02     -1.655643e-01     
-1.884521e-01     -1.542932e-01     1.613115e-01     1.787115e-01     2.383139e-01     
1.794024e-01     -2.404678e-01     -1.785075e-01     -1.294905e-01     1.568161e-01     
1.777201e-01     -6.195801e-02     -1.228837e-01     -1.523998e-01     -5.564519e-02     
1.142486e-02     -6.285734e-02     7.710532e-03     5.839041e-02     9.460922e-02     
-8.771877e-02     -1.854388e-01     -3.724132e-02     -2.157014e-01     2.091420e-01     
2.894633e-01     2.099598e-01     -9.245495e-02     9.188521e-02     6.557520e-02     
-7.890762e-02     -1.315150e-01     -1.634586e-01     2.013016e-01     8.889247e-02     
1.360649e-01     6.678495e-02     -2.163464e-01     -1.260736e-01     -6.230164e-02     
1.283477e-01     8.222970e-02     7.511149e-02     -2.639060e-02     -3.352824e-02     
1.478924e-01     1.703431e-01     1.162524e-01     2.358952e-01     7.665789e-02     
-1.575708e-01     -8.298573e-02     -2.745400e-02     -1.351391e-01     3.849417e-03     
5.922692e-02     -3.152298e-02     3.413638e-02     -5.766458e-02     -1.020221e-01     
-2.919534e-02     4.869574e-02     -3.878390e-02     -3.136316e-02     -2.804394e-02     
-8.925620e-02     7.108794e-02     3.325330e-02     -1.155453e-02     -1.537561e-02     
8.744332e-02     -1.326620e-01     -4.453414e-02     -1.288893e-01     -1.422391e-01     
6.881271e-03     -7.374091e-02     -1.609111e-01     -5.773290e-02     -7.355145e-02     
7.554143e-02     -1.878917e-02     8.691461e-02     6.437256e-02     1.248303e-01     
1.524600e-01     -7.622989e-02     5.207872e-02     

0      
0      0      0      0      0      0      0      0      0      0      
0      0      0      0      0      0      0      0      0      0      
0      0      0      0      0      0      0      0      0      0      
0      0      0      0      0      0      0      0      0      0      
0      0      0      0      0      0      0      0      0      0      
0      0      0      0      0      0      0      0      0      0      
0      0      0      0      0      0      0      0      0      0      
0      0      0      0      0      0      0      0      0      0      
0      0      0      0      0      0      0      0      0      0      
0      0      0      0      0      0      0      0      0      0      
0      0      0      0      0      0      0      0      0      0      
0      0      0      0      0      0      0      0      0      0      
0      0      0      0      0      0      0      0      0      0      
0      0      0      0      0      0      0      0      0      0      
0      0      0      0      0      0      0      0      0      0      
0      0      0      0      0      0      0      0      0      0      
0      0      0      0      0      0      0      0      0      0      
0      0      0      0      0      0      0      0      0      0      
0      0      0      0      0      0      0      0      0      0      
0      0      0      0      0      0      0      0      0      0      
0      0      0      0      0      0      0      0      0      0      
0      0      0      0      0      0      0      0      0      0      
0      0      0      0      0      0      0      0      0      0      
0      0      1      1      1      1      1      1      1      1      
1      1      1      1      1      1      1      1      1      1      
1      1      1      1      1      1      1      1      1      1      
1      1      1      1      1      1      1      1      1      1      
1      1      1      1      1      1      1      1      1      1      
1      1      1      1      1      1      1      1      1      1      
1      1      1      1      1      1      1      1      1      1      
1      1      1      1      1      1      1      1      1      1      
1      1      1      1      1      1      1      1      1      1      
1      1      1      1      1      1      1      1      1      1      
1      1      1      1      1      1      1      1      1      1      
1      1      1      1      1      1      1      1      1      1      
1      1      1      1      1      1      1      1      1      1      
1      1      1      1      1      1      1      1      1      1      
1      1      1      1      1      1      1      1      1      1      
1      1      1      1      1      1      1      1      1      1      
1      1      1      1      1      1      1      1      1      1      
1      1      1      1      1      1      1      1      1      1      
1      1      

1      2      3      34      
3      2      1      4      
4      3      2      40      
4      2      1      31      
4      5      6      40      
6      5      4      7      
7      6      5      38      
7      5      4      31      
14      15      16      17      
16      15      14      6      
6      15      14      40      
14      15      17      46      
20      19      11      39      
11      19      20      18      
23      24      25      34      
25      24      23      13      
13      25      24      35      
13      24      23      39      
28      29      10      42      
10      29      28      30      
30      10      29      46      
30      29      28      3      
3      29      28      23      
30      29      3      40      
23      29      28      39      
3      29      23      34      
5      31      22      58      
22      31      5      7      
7      22      31      21      
7      5      22      38      
27      31      2      41      
2      31      27      1      
1      27      2      34      
4      31      1      7      
2      31      4      5      
2      5      4      40      
2      31      5      41      
33      32      24      63      
24      32      33      25      
25      24      32      34      
25      33      24      35      
2      34      27      41      
1      27      34      26      
23      34      1      3      
1      34      23      26      
26      34      23      25      
27      34      26      32      
32      34      26      25      
27      34      32      63      
24      32      34      63      
23      24      34      29      
3      34      2      29      
29      34      2      64      
3      29      2      40      
24      29      23      39      
24      34      29      64      
24      35      33      62      
13      35      24      12      
12      35      24      50      
13      12      24      39      
22      38      5      58      
6      5      38      15      
5      15      6      40      
24      29      39      64      
28      23      39      13      
28      39      29      42      
13      39      11      12      
11      39      13      28      
28      11      39      20      
11      12      39      19      
12      39      19      49      
28      20      39      42      
5      15      40      57      
30      40      6      14      
6      40      30      3      
3      6      40      4      
30      29      40      46      
2      40      29      48      
2      5      40      48      
14      30      40      46      
14      40      15      46      
27      41      34      51      
2      34      41      64      
5      2      41      48      
5      41      31      58      
31      41      27      59      
10      42      29      9      
9      29      10      46      
9      42      29      55      
28      42      10      20      
29      42      39      55      
29      40      46      61      
9      29      46      55      
9      46      10      8      
30      10      46      8      
8      46      30      47      
47      46      30      14      
17      46      15      57      
15      46      40      57      
5      40      48      57      
41      48      2      64      
5      48      41      58      
29      48      40      61      
2      48      29      64      
24      50      35      62      
12      50      24      39      
34      51      41      64      
27      41      51      66      
27      51      34      63      
55      42      39      43      
39      55      43      77      
39      29      55      64      
9      55      46      94      
29      46      55      61      
53      45      57      17      
57      45      53      52      
53      57      52      78      
48      57      40      61      
46      57      17      53      
15      17      57      45      
46      57      53      61      
17      46      53      94      
38      58      22      37      
37      58      22      60      
31      58      41      59      
27      59      41      66      
37      60      22      36      
22      36      60      97      
57      61      48      78      
40      61      57      46      
53      61      57      78      
46      61      53      55      
29      48      61      55      
48      55      29      64      
48      61      55      78      
53      55      61      78      
53      46      55      94      
33      24      62      63      
24      50      62      51      
24      51      62      63      
24      50      51      64      
62      63      51      44      
44      63      51      71      
24      63      34      51      
24      51      34      64      
27      51      63      66      
63      33      32      44      
48      64      41      80      
41      64      51      80      
48      55      64      80      
24      64      39      50      
39      50      64      77      
51      64      50      77      
41      51      66      80      
51      63      66      71      
70      69      68      84      
68      69      70      67      
70      67      69      72      
51      71      66      84      
44      71      51      65      
65      71      51      84      
73      74      75      87      
75      74      73      76      
76      74      73      90      
39      77      64      55      
43      77      55      98      
52      53      78      95      
55      78      53      87      
55      48      78      80      
77      80      64      55      
64      80      77      51      
51      80      77      83      
77      80      81      93      
81      80      77      55      
55      81      80      78      
55      77      81      98      
81      78      55      87      
81      80      78      99      
51      66      80      84      
51      84      80      83      
65      71      84      85      
65      84      51      83      
65      84      83      91      
83      84      80      93      
70      84      68      85      
69      84      70      91      
65      85      84      70      
70      65      85      86      
70      84      65      91      
70      65      86      91      
53      87      78      95      
81      78      87      95      
81      87      55      98      
75      87      74      88      
74      88      87      98      
56      88      55      87      
55      88      56      43      
43      55      88      98      
87      88      55      98      
73      79      90      92      
90      79      73      76      
73      90      74      81      
81      90      74      98      
73      81      74      87      
73      90      81      99      
84      91      69      93      
83      91      84      93      
73      92      90      99      
80      93      77      83      
81      77      93      90      
81      93      80      99      
77      83      93      90      
91      93      90      72      
90      93      91      83      
91      93      72      69      
69      93      72      99      
90      72      93      99      
84      93      69      80      
80      93      69      99      
81      90      93      99      
81      77      90      98      
77      83      90      98      
81      78      95      99      
81      95      87      73      
52      95      78      96      
53      95      52      54      
87      95      53      54      
81      98      74      87      
83      98      77      89      
95      99      78      96      
81      99      95      73      
90      99      92      72      
78      99      80      82      
4      3       1      4      
7      6       4      7      
6      16       14      6      
18      11       20      18      
13      25       23      13      
30      10       28      30      
30      28       3      30      
3      28       23      3      
7      4       1      7      
26      1       23      26      
23      25       26      23      
1      3       23      1      
28      11       13      28      
28      20       11      28      
3      6       30      3      
4      6       3      4      
14      30       6      14      
10      20       28      10      
47      8       30      47      
14      47       30      14      
8      10       30      8      
28      13       23      28      
22      36       37      22      
36      60       37      36      
21      31       22      21      
31      58       22      31      
31      59       58      31      
58      59       41      58      
58      60       22      58      
41      59       66      41      
36      97       60      36      
60      97       22      60      
63      62       44      63      
33      63       44      33      
33      62       63      33      
65      71       44      65      
65      85       71      65      
86      85       65      86      
26      27       1      26      
1      31       7      1      
1      27       31      1      
7      31       21      7      
27      26       32      27      
33      44       32      33      
27      59       31      27      
63      27       32      63      
44      63       32      44      
27      66       59      27      
27      63       66      27      
22      97       36      22      
67      68       70      67      
71      66       63      71      
71      63       44      71      
71      84       66      71      
85      84       71      85      
68      84       85      68      
68      85       70      68      
70      85       86      70      
70      72       67      70      
15      16       6      15      
21      22       7      21      
37      38       22      37      
6      38       15      6      
22      38       7      22      
7      38       6      7      
15      38       5      15      
45      57       52      45      
15      5       57      15      
5      48       57      5      
57      45       15      57      
58      38       37      58      
38      58       5      38      
5      58       48      5      
48      58       41      48      
60      58       37      60      
69      68       67      69      
67      72       69      67      
57      78       52      57      
48      78       57      48      
78      80       82      78      
48      80       78      48      
48      41       80      48      
66      80       41      66      
84      80       66      84      
69      80       84      69      
69      84       68      69      
92      99       72      92      
99      69       72      99      
96      78       99      96      
69      99       80      69      
80      99       82      80      
99      78       82      99      
96      52       78      96      
8      9       10      8      
16      15       17      16      
16      17       14      16      
20      39       19      20      
20      42       39      20      
42      10       9      42      
42      20       10      42      
39      42       43      39      
15      45       17      15      
8      46       9      8      
46      8       47      46      
46      47       14      46      
14      17       46      14      
45      52       53      45      
53      52       54      53      
42      55       43      42      
43      55       56      43      
9      55       42      9      
45      53       17      45      
53      87       55      53      
56      55       87      56      
53      54       87      53      
55      94       53      55      
9      94       55      9      
46      94       9      46      
17      94       46      17      
53      94       17      53      
75      73       76      75      
76      73       79      76      
92      79       73      92      
75      87       73      75      
87      95       73      87      
54      95       87      54      
52      95       54      52      
52      96       95      52      
95      99       73      95      
73      99       92      73      
96      99       95      96      
12      49       39      12      
39      50       12      39      
50      35       12      50      
50      62       35      50      
51      62       50      51      
62      51       44      62      
44      51       65      44      
74      75       76      74      
77      50       39      77      
51      83       65      51      
43      56       88      43      
75      74       88      75      
75      88       87      75      
56      87       88      56      
77      89       83      77      
65      83       91      65      
65      91       86      65      
50      77       51      50      
51      77       83      51      
89      98       83      89      
98      89       77      98      
77      43       98      77      
88      98       43      88      
69      72       70      69      
79      90       76      79      
76      90       74      76      
69      91       72      69      
70      91       69      70      
70      86       91      70      
90      72       91      90      
90      92       72      90      
79      92       90      79      
90      91       83      90      
90      98       74      90      
83      98       90      83      
74      98       88      74      
11      12       13      11      
18      19       11      18      
11      19       12      11      
20      19       18      20      
25      32       26      25      
25      33       32      25      
25      35       33      25      
13      35       25      13      
12      35       13      12      
19      49       12      19      
39      49       19      39      
35      62       33      35      
77      39       43      77      
