title = " tecplot file for process Mesh " 
variables = "x",  "y", "z", "cell_type" 
zone N = 96 E = 409 DATAPACKING = BLOCK,  VARLOCATION = ([4]=CELLCENTERED), ZONETYPE=FETETRAHEDRON 
-5.000000e-01     
-4.107988e-01     -5.000000e-01     -5.000000e-01     -4.177536e-01     -5.000000e-01     
-5.000000e-01     -5.000000e-01     -5.000000e-01     -4.000277e-01     -5.000000e-01     
-2.340401e-01     -2.344499e-01     -2.000000e-01     -3.000000e-01     -4.144103e-01     
-5.000000e-01     -5.000000e-01     -5.000000e-01     -4.167653e-01     -5.000000e-01     
-3.376596e-01     -3.384099e-01     -4.000000e-01     -4.299081e-01     -5.000000e-01     
-5.000000e-01     -4.302667e-01     -5.000000e-01     -4.124731e-01     -5.000000e-01     
-4.192510e-01     -4.061858e-01     -5.000000e-01     -5.000000e-01     -5.000000e-01     
-5.000000e-01     -4.055522e-01     -4.194027e-01     -4.112100e-01     -2.594656e-01     
-2.212012e-01     -1.700978e-01     -1.336164e-01     -7.709856e-02     -6.454143e-02     
-1.000000e-01     -3.315611e-02     -1.338189e-01     -6.491680e-02     -2.513119e-01     
-2.995243e-01     -3.207404e-01     -3.265207e-01     -2.122135e-01     -2.236791e-01     
-1.616496e-01     -3.100577e-01     -3.306343e-01     -2.611290e-01     -2.291413e-01     
-2.204774e-01     -1.711619e-01     -1.138230e-01     -1.166339e-01     -1.730534e-03     
-5.419015e-02     -1.098876e-01     -4.404711e-03     5.343321e-02     1.101390e-01     
-1.840125e-01     -4.112996e-01     -4.179853e-01     -4.012225e-01     -5.000000e-01     
-3.980864e-01     -3.425255e-01     -2.885713e-01     -3.065244e-01     -3.252054e-01     
-3.195370e-01     -1.549392e-01     -1.948314e-01     1.283474e-02     5.683595e-02     
-3.317843e-01     -3.244908e-01     -1.744830e-01     -3.270501e-01     -3.373271e-01     
-2.990160e-01     -2.483809e-01     -2.358085e-01     -3.379727e-01     -2.668339e-01     

-1.000000e-01     
-1.445889e-01     -1.336441e-01     -2.000000e-01     -3.441993e-01     -4.000000e-01     
-3.377690e-01     -3.000000e-01     0.000000e+00     -3.358090e-02     -3.315300e-02     
-5.000000e-01     -4.139231e-01     -5.000000e-01     -5.000000e-01     -2.460605e-01     
-2.341010e-01     -4.169221e-01     -5.000000e-01     -5.000000e-01     -5.000000e-01     
-5.000000e-01     -4.032166e-01     -5.000000e-01     -5.000000e-01     -4.299518e-01     
-5.000000e-01     -4.299604e-01     -2.597546e-01     -2.213850e-01     -1.702994e-01     
-3.948809e-01     2.371462e-02     5.141707e-02     5.287977e-02     -6.462224e-02     
-2.256034e-01     -2.712972e-01     -3.860932e-01     -7.713979e-02     -5.000000e-01     
-4.129487e-01     -5.000000e-01     -5.000000e-01     -4.179129e-01     -5.000000e-01     
-5.000000e-01     -4.168183e-01     -4.134976e-01     -3.273394e-01     -1.495234e-01     
-1.488034e-01     -9.988136e-02     -1.970054e-01     -1.187031e-01     -6.364693e-02     
-1.429388e-01     -3.440088e-01     -2.939841e-01     -3.348257e-01     -2.395921e-01     
-3.001351e-01     -3.259874e-01     -2.348938e-01     -2.960736e-01     -2.383166e-01     
-1.388053e-01     -1.722127e-01     -3.019520e-01     -3.401999e-01     -2.414973e-01     
-4.425270e-01     -3.011018e-01     -1.576366e-01     -1.330280e-01     -1.120386e-01     
-1.729986e-02     -4.248630e-01     -4.293627e-01     -2.464302e-01     -6.026705e-02     
4.286206e-02     -4.088278e-02     -2.103986e-01     -2.066505e-01     -1.449067e-01     
-3.318754e-01     -2.424339e-01     -2.954571e-01     -2.398524e-01     -1.147359e-01     
-1.382256e-02     -3.318915e-01     -2.285682e-01     -1.007755e-01     -8.901062e-02     

-5.000000e-01     
-5.000000e-01     -4.148846e-01     -5.000000e-01     -5.000000e-01     -5.000000e-01     
-4.027417e-01     -5.000000e-01     -5.000000e-01     -5.000000e-01     -4.181727e-01     
-4.150188e-01     -5.000000e-01     -5.000000e-01     -5.000000e-01     -5.000000e-01     
-4.144987e-01     -3.434511e-01     -4.000000e-01     -3.435858e-01     -3.000000e-01     
-4.029938e-01     -5.000000e-01     -5.000000e-01     -4.297341e-01     -4.296638e-01     
-5.000000e-01     -5.000000e-01     -3.347614e-01     -3.592049e-01     -3.283546e-01     
-3.919522e-01     -3.978846e-01     -4.334662e-01     -3.420148e-01     -3.308520e-01     
-2.392799e-01     -2.887011e-01     -2.934461e-01     -3.879698e-01     -3.354959e-01     
-3.600736e-01     -3.297060e-01     -4.156851e-01     -3.891802e-01     -3.327785e-01     
-5.000000e-01     -5.000000e-01     -5.000000e-01     -5.000000e-01     -5.000000e-01     
-4.205582e-01     -5.000000e-01     -5.000000e-01     -4.178016e-01     -5.000000e-01     
-5.000000e-01     -4.105864e-01     -5.000000e-01     -5.000000e-01     -5.000000e-01     
-4.179730e-01     -5.000000e-01     -5.000000e-01     -4.121145e-01     -5.000000e-01     
-5.000000e-01     -4.121949e-01     -4.027988e-01     -5.000000e-01     -5.000000e-01     
-4.431310e-01     -4.137741e-01     -4.158507e-01     -2.917118e-01     -2.427303e-01     
-2.918028e-01     -3.469142e-01     -4.296850e-01     -4.178749e-01     -4.167946e-01     
-4.162048e-01     -4.128204e-01     -4.182626e-01     -4.094005e-01     -5.000000e-01     
-3.148071e-01     -2.269009e-01     -3.118138e-01     -3.274051e-01     -3.490430e-01     
-3.263607e-01     -3.413378e-01     -3.265814e-01     -2.781188e-01     -3.705798e-01     


0      
0      0      0      0      0      0      0      0      0      0      
0      0      0      0      0      0      0      0      0      0      
0      0      0      0      0      0      0      0      0      0      
0      0      0      0      0      0      0      0      0      0      
0      0      0      0      0      0      0      0      0      0      
0      0      0      0      0      0      0      0      0      0      
0      0      0      0      0      0      0      0      0      0      
0      0      0      0      0      0      0      0      0      0      
0      0      0      0      0      0      0      0      0      0      
0      0      0      0      0      0      0      0      0      0      
0      0      0      0      0      0      0      0      0      0      
0      0      0      0      0      0      0      0      0      0      
0      0      0      0      0      0      0      0      0      0      
0      0      0      0      0      0      0      0      0      0      
0      0      0      0      0      0      0      0      0      0      
0      0      0      0      0      0      0      0      0      0      
0      0      0      0      0      0      0      0      0      0      
0      0      0      0      0      0      0      0      0      0      
0      0      0      0      0      0      0      0      0      0      
0      0      0      0      0      0      0      0      0      0      
0      0      0      0      0      0      0      0      0      0      
0      0      0      0      0      0      0      0      0      0      
0      0      0      0      0      0      0      0      0      0      
0      0      1      1      1      1      1      1      1      1      
1      1      1      1      1      1      1      1      1      1      
1      1      1      1      1      1      1      1      1      1      
1      1      1      1      1      1      1      1      1      1      
1      1      1      1      1      1      1      1      1      1      
1      1      1      1      1      1      1      1      1      1      
1      1      1      1      1      1      1      1      1      1      
1      1      1      1      1      1      1      1      1      1      
1      1      1      1      1      1      1      1      1      1      
1      1      1      1      1      1      1      1      1      1      
1      1      1      1      1      1      1      1      1      1      
1      1      1      1      1      1      1      1      1      1      
1      1      1      1      1      1      1      1      1      1      
1      1      1      1      1      1      1      1      1      1      
1      1      1      1      1      1      1      1      1      1      
1      1      1      1      1      1      1      1      1      1      
1      1      1      1      1      1      1      1      1      1      
1      1      1      1      1      1      1      1      

1      2      3      40      
3      2      1      4      
4      3      2      74      
5      6      7      32      
7      6      5      8      
5      7      8      73      
9      10      11      33      
11      10      9      1      
1      11      10      40      
12      13      14      72      
14      13      12      15      
12      15      13      79      
16      8      17      73      
17      8      16      4      
16      17      4      74      
18      19      20      32      
20      19      18      21      
18      20      21      39      
15      22      23      79      
23      22      15      24      
24      23      22      25      
23      22      25      32      
24      23      25      28      
26      25      19      32      
19      25      26      27      
26      27      25      28      
25      28      23      32      
24      28      25      27      
27      28      26      6      
6      28      26      32      
25      26      28      32      
29      30      17      73      
17      30      29      31      
31      17      30      74      
31      30      29      38      
7      32      18      39      
18      32      7      26      
26      18      32      19      
26      32      7      6      
20      32      19      25      
18      32      20      39      
20      32      25      22      
23      22      32      79      
23      32      28      5      
23      32      5      58      
28      5      32      6      
5      32      7      73      
11      33      10      40      
9      33      11      34      
34      33      11      35      
35      33      11      36      
35      33      36      77      
11      36      33      40      
38      29      31      37      
31      38      37      75      
30      38      31      75      
29      38      30      73      
32      39      7      73      
36      40      3      31      
3      40      36      11      
11      3      40      1      
36      33      40      77      
10      40      33      81      
1      40      10      2      
2      40      10      81      
31      40      3      74      
36      40      31      75      
12      43      42      72      
42      43      12      41      
12      42      41      79      
48      45      49      50      
49      45      48      47      
47      49      45      72      
44      45      43      72      
43      45      44      46      
50      45      49      65      
48      45      50      69      
51      52      53      55      
53      52      51      54      
54      53      52      74      
54      52      51      61      
51      55      56      57      
56      55      51      53      
53      55      52      81      
51      52      55      84      
57      55      56      83      
51      55      57      84      
23      58      59      60      
59      58      23      5      
5      59      58      73      
5      58      32      73      
23      32      58      79      
60      23      58      79      
60      58      59      80      
61      62      60      80      
60      62      61      63      
63      60      62      13      
63      62      61      84      
60      62      13      79      
63      13      62      72      
64      65      63      84      
63      65      64      50      
50      63      65      49      
50      65      64      66      
63      65      49      72      
45      65      50      69      
49      65      45      72      
66      65      64      68      
50      65      66      69      
67      68      64      57      
64      68      67      66      
66      68      67      85      
64      57      68      84      
50      48      69      70      
70      69      50      66      
66      69      65      85      
45      72      65      42      
42      45      72      43      
42      72      65      62      
65      72      63      62      
49      63      72      13      
62      63      65      84      
42      62      65      89      
42      72      62      79      
62      72      13      79      
49      13      72      14      
44      72      43      12      
12      44      72      14      
12      72      42      79      
14      72      49      47      
14      72      47      44      
44      72      47      45      
12      13      72      79      
32      73      58      87      
59      73      16      80      
16      73      59      5      
5      16      73      8      
58      73      59      80      
16      73      30      80      
30      73      16      17      
17      16      30      74      
17      7      73      8      
73      7      17      29      
30      73      38      90      
39      73      32      87      
40      74      31      75      
3      31      74      17      
3      74      40      2      
3      17      74      4      
31      74      30      75      
54      74      2      53      
2      74      54      16      
16      2      74      4      
16      74      54      80      
30      74      16      80      
38      75      30      90      
31      75      37      76      
76      31      75      36      
36      75      76      77      
36      40      75      77      
74      75      40      91      
30      75      74      91      
40      75      77      91      
33      40      77      92      
42      79      78      41      
78      79      42      58      
58      78      79      32      
58      79      42      62      
12      79      41      22      
22      12      79      15      
32      58      78      87      
23      79      60      13      
13      23      79      15      
60      79      58      62      
58      60      62      80      
58      62      42      93      
60      80      59      61      
58      80      62      93      
59      61      80      54      
61      62      80      84      
61      80      54      52      
59      54      80      16      
30      80      73      90      
30      74      80      52      
54      80      74      52      
30      52      80      90      
30      74      52      91      
73      80      58      90      
52      53      81      74      
52      81      55      96      
33      81      40      92      
10      81      33      82      
81      10      2      53      
2      81      53      74      
40      81      2      74      
40      81      74      91      
74      81      52      91      
33      82      81      92      
83      57      55      68      
55      68      57      84      
64      84      68      65      
63      64      84      61      
64      84      61      57      
52      84      80      94      
80      84      52      61      
61      84      52      51      
51      61      84      57      
52      55      84      94      
62      80      84      94      
69      85      66      71      
65      66      85      68      
67      66      85      86      
66      85      86      71      
73      87      39      38      
38      73      87      90      
58      87      73      90      
42      62      89      93      
58      90      80      93      
52      80      90      94      
52      90      30      91      
75      90      38      88      
30      90      75      91      
40      91      77      92      
75      77      91      95      
52      90      91      94      
52      91      81      96      
81      91      40      92      
81      91      92      96      
77      92      91      95      
62      93      80      94      
80      93      90      94      
55      94      52      96      
52      94      91      96      
2      4       1      2      
4      3       1      4      
6      7       8      6      
5      6       8      5      
10      1       9      10      
1      11       9      1      
15      13       14      15      
12      15       14      12      
8      17       4      8      
16      8       4      16      
19      20       21      19      
18      19       21      18      
22      24       15      22      
24      23       15      24      
25      24       22      25      
19      27       25      19      
26      27       19      26      
24      28       23      24      
28      27       6      28      
6      27       26      6      
24      27       28      24      
25      27       24      25      
31      17       29      31      
26      18       7      26      
26      19       18      26      
19      25       20      19      
20      25       22      20      
28      5       23      28      
28      6       5      28      
6      26       7      6      
34      9       11      34      
34      11       35      34      
11      36       35      11      
31      29       37      31      
11      3       36      11      
1      3       11      1      
2      1       10      2      
36      3       31      36      
12      43       41      12      
47      49       48      47      
44      46       43      44      
48      49       50      48      
54      53       51      54      
53      56       51      53      
51      56       57      51      
5      59       23      5      
60      23       59      60      
63      60       61      63      
63      13       60      63      
50      63       64      50      
50      49       63      50      
50      64       66      50      
66      64       67      66      
64      57       67      64      
48      50       70      48      
66      70       50      66      
49      13       63      49      
12      44       43      12      
14      13       49      14      
44      14       47      44      
14      49       47      14      
12      14       44      12      
5      16       59      5      
17      7       29      17      
8      7       17      8      
5      8       16      5      
3      17       31      3      
16      2       54      16      
16      4       2      16      
4      17       3      4      
76      31       37      76      
36      31       76      36      
22      12       41      22      
13      23       60      13      
15      23       13      15      
22      15       12      22      
59      61       60      59      
59      54       61      59      
16      54       59      16      
2      10       53      2      
64      63       61      64      
57      61       51      57      
64      61       57      64      
66      67       86      66      
86      71       66      86      
2      53       54      2      
54      51       61      54      
44      45       46      44      
44      47       45      44      
48      45       47      48      
48      69       45      48      
70      69       48      70      
66      69       70      66      
71      69       66      71      
71      85       69      71      
85      71       86      85      
33      10       9      33      
33      9       34      33      
35      33       34      35      
77      33       35      77      
82      10       33      82      
33      77       92      33      
33      92       82      33      
55      56       53      55      
57      68       67      57      
53      81       55      53      
53      10       81      53      
10      82       81      10      
57      83       68      57      
68      83       55      68      
57      56       83      57      
55      83       56      55      
84      68       55      84      
69      85       65      69      
68      85       67      68      
67      85       86      67      
68      65       85      68      
82      92       81      82      
94      84       55      94      
55      96       94      55      
81      96       55      81      
92      96       81      92      
38      75       37      38      
37      75       76      37      
36      76       77      36      
75      77       76      75      
36      77       35      36      
38      88       75      38      
88      90       75      88      
90      91       75      90      
90      94       91      90      
91      95       75      91      
75      95       77      75      
92      95       91      92      
95      92       77      95      
91      96       92      91      
91      94       96      91      
22      32       20      22      
29      38       37      29      
18      39       7      18      
32      39       20      32      
21      20       39      21      
39      18       21      39      
43      42       41      43      
46      45       43      46      
45      69       65      45      
45      65       42      45      
7      73       29      7      
29      73       38      29      
7      39       73      7      
38      73       39      38      
42      78       41      42      
42      43       45      42      
78      42       58      78      
78      79       41      78      
41      79       22      41      
79      78       32      79      
22      79       32      22      
68      84       65      68      
65      84       62      65      
39      87       38      39      
87      39       32      87      
78      87       32      78      
58      87       78      58      
62      89       65      62      
65      89       42      65      
58      90       87      58      
38      87       90      38      
38      90       88      38      
62      93       89      62      
89      93       42      89      
58      93       90      58      
58      42       93      58      
62      84       94      62      
62      94       93      62      
93      94       90      93      
