title = " tecplot file for process Mesh " 
variables = "x",  "y", "z", "cell_type" 
zone N = 104 E = 423 DATAPACKING = BLOCK,  VARLOCATION = ([4]=CELLCENTERED), ZONETYPE=FETETRAHEDRON 
0.000000e+00     
5.178851e-02     4.830228e-02     1.000000e-01     -3.653955e-02     -1.000000e-01     
-3.295755e-02     -1.366622e-01     -1.337845e-01     -2.000000e-01     -2.344263e-01     
1.377046e-01     2.000000e-01     1.321828e-01     7.535529e-02     4.558078e-02     
5.410661e-02     1.616572e-01     -1.760537e-01     -8.154094e-02     -7.142103e-02     
-6.432137e-02     -3.152366e-02     -2.498834e-02     3.209921e-02     -7.554057e-02     
-1.338303e-02     -1.430882e-02     -1.223302e-01     6.042708e-02     1.091621e-01     
1.120897e-01     -1.117615e-01     -1.710931e-01     -2.204139e-01     -1.073216e-01     
-5.374832e-02     -7.691147e-04     -5.895066e-02     -2.333688e-01     -1.378000e-01     
-9.253668e-03     -1.602308e-01     1.196113e-01     -3.003020e-02     1.236821e-01     
1.766192e-02     1.139965e-02     -7.644417e-02     4.672397e-02     -8.715891e-02     
-4.205179e-02     4.351436e-02     3.186261e-02     4.733284e-02     -1.208231e-01     
-3.954632e-02     -1.325225e-01     1.694549e-01     2.034474e-01     2.046196e-01     
-3.237491e-02     3.356618e-02     5.670359e-02     -4.958399e-02     -4.975425e-02     
-1.442420e-01     -1.436141e-01     -2.486574e-01     1.039903e-01     1.326207e-01     
-2.086870e-01     -8.973833e-02     1.281992e-01     -8.962029e-02     -1.964516e-01     
-1.630906e-01     -9.303104e-02     1.587556e-02     -3.236617e-02     -1.450965e-01     
-1.198214e-01     -2.272779e-01     -9.914444e-02     9.402633e-03     9.976539e-02     
2.905901e-02     4.206163e-02     -1.836712e-01     -5.846766e-02     1.152956e-01     
-3.809240e-02     -4.713288e-02     -9.934045e-02     -9.435983e-02     -2.441756e-02     
-1.234178e-01     1.517068e-02     2.188093e-01     1.573082e-01     3.651089e-03     
-4.193098e-03     1.930056e-01     -1.995006e-02     
5.000000e-01     
4.312317e-01     5.000000e-01     5.000000e-01     5.000000e-01     5.000000e-01     
4.147698e-01     5.000000e-01     4.105876e-01     5.000000e-01     4.102121e-01     
4.153532e-01     5.000000e-01     5.000000e-01     4.055642e-01     5.000000e-01     
3.369475e-01     5.000000e-01     5.000000e-01     4.182232e-01     5.000000e-01     
3.227309e-01     5.000000e-01     4.102369e-01     5.000000e-01     5.000000e-01     
4.055197e-01     5.000000e-01     5.000000e-01     1.440632e-01     1.782696e-01     
2.381181e-01     2.279223e-01     3.190499e-01     2.902802e-01     1.659094e-01     
1.225379e-01     2.319927e-01     2.608820e-01     5.000000e-01     4.020358e-01     
3.553289e-01     3.679946e-01     3.942137e-01     4.114720e-01     2.959851e-01     
2.044256e-01     1.096215e-01     3.295829e-01     4.019531e-01     6.637131e-02     
-1.038295e-02     2.859603e-01     5.158073e-02     3.076187e-01     2.232776e-02     
1.636962e-01     2.340524e-01     1.916033e-01     9.500666e-02     1.458495e-01     
2.839712e-01     1.805921e-01     1.960636e-01     1.897683e-01     2.644615e-03     
-6.870312e-02     4.741405e-02     2.830865e-02     1.000127e-01     4.712919e-03     
7.585434e-02     1.140237e-01     1.128847e-01     2.368886e-01     2.289514e-01     
1.624449e-01     3.464819e-01     1.277716e-01     7.606658e-02     -1.470839e-02     
8.944716e-02     7.852036e-03     2.692346e-02     4.377349e-02     6.200321e-02     
-4.029087e-02     2.464823e-02     -5.653861e-03     8.163746e-02     1.478539e-01     
1.641181e-01     5.267871e-02     -2.124176e-02     -7.024213e-02     -2.158492e-02     
1.452373e-01     1.115827e-01     -3.705678e-02     -2.976567e-03     -1.016461e-01     
4.302292e-01     6.330788e-02     2.228694e-01     
5.000000e-01     
5.000000e-01     4.321877e-01     5.000000e-01     4.171923e-01     5.000000e-01     
5.000000e-01     4.146223e-01     5.000000e-01     5.000000e-01     5.000000e-01     
5.000000e-01     5.000000e-01     4.155384e-01     3.955337e-01     3.388750e-01     
5.000000e-01     3.233363e-01     3.285029e-01     3.870999e-01     3.294852e-01     
5.000000e-01     5.379623e-02     1.147421e-01     1.434525e-01     1.469775e-01     
3.027416e-01     2.398647e-01     2.418487e-01     5.000000e-01     4.123820e-01     
5.000000e-01     5.000000e-01     5.000000e-01     4.133242e-01     4.137437e-01     
5.000000e-01     5.000000e-01     4.093142e-01     2.408883e-01     2.926683e-01     
4.210254e-01     4.160856e-01     2.854899e-01     2.095015e-01     3.957879e-01     
4.107849e-01     4.051339e-01     3.338963e-01     2.434862e-01     4.191277e-01     
3.699597e-01     4.295877e-01     3.091460e-01     3.100022e-01     3.518147e-01     
3.559425e-01     3.300345e-01     1.639470e-01     1.956325e-01     6.589751e-02     
2.614740e-01     1.915037e-01     3.061275e-01     2.713326e-01     2.669787e-01     
3.061934e-01     2.714692e-01     2.720810e-01     2.353010e-01     1.760556e-01     
1.962091e-01     2.341226e-01     1.495434e-01     1.690870e-01     2.606227e-01     
2.023573e-01     2.370597e-01     2.628954e-01     1.708620e-01     1.371372e-01     
9.974062e-02     1.017809e-01     1.989159e-01     9.414728e-02     8.092342e-02     
5.922692e-02     2.134139e-01     2.149141e-01     3.158211e-01     6.105599e-02     
1.235447e-01     2.068263e-02     5.291877e-02     2.163687e-01     1.585659e-01     
3.126400e-01     1.252687e-01     1.109510e-01     5.281515e-02     1.953350e-01     
3.827682e-01     1.082801e-01     1.602547e-01     

0      
0      0      0      0      0      0      0      0      0      0      
0      0      0      0      0      0      0      0      0      0      
0      0      0      0      0      0      0      0      0      0      
0      0      0      0      0      0      0      0      0      0      
0      0      0      0      0      0      0      0      0      0      
0      0      0      0      0      0      0      0      0      0      
0      0      0      0      0      0      0      0      0      0      
0      0      0      0      0      0      0      0      0      0      
0      0      0      0      0      0      0      0      0      0      
0      0      0      0      0      0      0      0      0      0      
0      0      0      0      0      0      0      0      0      0      
0      0      0      0      0      0      0      0      0      0      
0      0      0      0      0      0      0      0      0      0      
0      0      0      0      0      0      0      0      0      0      
0      0      0      0      0      0      0      0      0      0      
0      0      0      0      0      0      0      0      0      0      
0      0      0      0      0      0      0      0      0      0      
0      0      0      0      0      0      0      0      0      0      
0      0      0      0      0      0      0      0      0      0      
0      0      0      0      0      0      0      0      0      0      
0      0      0      0      0      0      0      0      0      0      
0      0      0      0      0      0      0      0      0      0      
0      0      0      0      0      0      0      0      0      0      
0      0      1      1      1      1      1      1      1      1      
1      1      1      1      1      1      1      1      1      1      
1      1      1      1      1      1      1      1      1      1      
1      1      1      1      1      1      1      1      1      1      
1      1      1      1      1      1      1      1      1      1      
1      1      1      1      1      1      1      1      1      1      
1      1      1      1      1      1      1      1      1      1      
1      1      1      1      1      1      1      1      1      1      
1      1      1      1      1      1      1      1      1      1      
1      1      1      1      1      1      1      1      1      1      
1      1      1      1      1      1      1      1      1      1      
1      1      1      1      1      1      1      1      1      1      
1      1      1      1      1      1      1      1      1      1      
1      1      1      1      1      1      1      1      1      1      
1      1      1      1      1      1      1      1      1      1      
1      1      1      1      1      1      1      1      1      1      
1      1      1      1      1      1      1      1      1      1      
1      1      1      1      1      1      1      1      1      1      
1      1      1      1      1      1      1      1      1      1      
1      1      

1      2      3      102      
3      2      1      4      
4      3      2      14      
5      6      7      20      
7      6      5      1      
5      7      1      102      
6      8      9      20      
9      8      6      10      
10      9      8      11      
9      8      11      43      
12      14      4      2      
4      14      12      13      
2      14      3      15      
12      14      2      15      
3      2      15      102      
3      15      14      16      
16      15      14      18      
3      15      16      102      
17      15      2      42      
2      15      17      12      
16      15      18      44      
19      20      21      41      
21      20      19      8      
8      21      20      5      
21      20      5      102      
8      5      20      6      
9      20      8      43      
6      20      9      7      
5      20      7      102      
7      20      9      22      
22      20      9      43      
7      20      22      42      
26      25      24      45      
24      25      26      23      
21      27      28      29      
28      27      21      16      
16      27      21      102      
29      21      27      41      
29      27      28      45      
38      33      36      39      
36      33      38      37      
38      36      37      47      
36      39      35      58      
35      39      36      33      
33      35      39      34      
34      39      33      22      
22      34      39      43      
22      39      33      38      
35      39      34      43      
22      39      38      53      
38      39      36      47      
19      29      41      21      
41      29      19      40      
27      41      20      49      
20      41      27      21      
21      27      20      102      
29      41      27      45      
17      42      22      53      
22      42      17      7      
7      42      17      2      
7      42      2      102      
2      42      15      102      
17      15      42      53      
20      42      7      102      
22      42      20      43      
39      43      35      58      
22      34      43      9      
22      43      39      42      
20      43      42      49      
42      43      39      49      
22      42      39      53      
34      43      9      11      
16      15      44      27      
15      44      27      55      
16      15      27      102      
27      45      41      78      
25      45      26      28      
28      45      26      29      
38      47      32      53      
32      47      38      30      
30      32      47      31      
30      47      38      37      
32      47      31      53      
36      47      39      57      
38      39      47      53      
37      47      36      48      
48      36      37      51      
48      47      36      57      
49      41      20      43      
39      49      43      58      
42      49      39      55      
42      20      49      27      
41      49      27      78      
48      36      51      57      
39      47      53      55      
22      53      38      17      
39      53      42      55      
38      17      53      32      
17      53      46      15      
46      53      17      32      
32      46      53      31      
31      46      53      64      
31      53      47      64      
42      53      15      55      
15      53      46      55      
47      53      55      64      
47      55      39      62      
39      55      49      62      
42      49      55      27      
27      49      55      62      
27      55      42      15      
46      55      53      64      
27      55      44      50      
27      15      42      102      
27      55      50      62      
48      57      51      90      
36      51      57      97      
39      36      57      58      
39      57      47      62      
57      58      36      97      
39      58      57      62      
39      49      58      62      
49      62      27      78      
47      55      62      64      
47      62      57      64      
58      62      49      78      
65      62      64      57      
64      62      65      63      
65      63      62      104      
65      64      63      79      
57      65      62      58      
57      64      65      79      
56      67      66      68      
66      67      56      52      
52      56      66      90      
68      67      66      95      
56      68      66      90      
60      74      71      103      
71      74      60      70      
70      71      74      88      
59      74      61      91      
61      74      59      60      
60      61      74      103      
62      75      65      104      
65      75      62      58      
58      65      75      76      
58      75      62      78      
65      76      58      97      
65      75      76      77      
65      77      76      97      
65      75      77      92      
65      79      63      73      
73      79      80      66      
80      79      73      63      
63      80      79      98      
63      73      80      92      
66      73      79      90      
66      80      73      84      
66      79      80      88      
57      79      65      90      
65      73      63      92      
65      79      73      90      
72      81      83      89      
83      81      72      82      
72      82      81      84      
66      84      73      68      
68      66      84      95      
68      73      66      90      
68      84      73      72      
73      84      80      82      
66      80      84      96      
82      84      80      96      
73      82      80      92      
73      84      82      72      
81      84      82      96      
72      84      81      89      
68      84      72      89      
71      85      86      88      
86      85      71      87      
70      88      74      98      
71      74      88      86      
86      74      88      98      
86      71      74      103      
86      88      85      98      
80      88      79      98      
66      79      88      54      
66      88      80      96      
54      66      79      90      
81      89      84      95      
68      84      89      95      
68      89      72      69      
68      89      67      95      
67      89      68      69      
56      68      90      97      
68      73      90      97      
57      90      65      97      
73      65      90      97      
54      66      90      52      
51      90      57      97      
48      90      51      52      
52      90      51      56      
48      90      52      54      
56      90      51      97      
82      92      73      77      
77      92      73      65      
80      92      82      98      
63      92      80      98      
65      92      63      104      
85      94      82      96      
82      94      85      93      
93      85      82      98      
81      95      84      96      
84      95      66      96      
80      96      88      85      
85      80      96      82      
85      88      80      98      
88      96      66      101      
66      96      95      101      
82      96      94      81      
82      85      80      98      
73      65      97      77      
65      97      58      57      
88      98      70      79      
74      70      98      63      
70      79      98      63      
75      92      65      104      
27      102      42      20      
2      7      102      1      
5      102      3      16      
3      102      5      1      
5      102      16      21      
71      103      100      99      
100      103      71      86      
2      4       1      2      
6      7       1      6      
10      9       6      10      
10      11       9      10      
12      13       4      12      
12      4       2      12      
12      2       17      12      
6      9       7      6      
7      9       22      7      
38      33       37      38      
22      34       33      22      
22      33       38      22      
7      22       17      7      
17      2       7      17      
22      9       34      22      
9      11       34      9      
30      32       38      30      
38      37       30      38      
38      17       22      38      
32      17       38      32      
2      1       7      2      
4      3       1      4      
5      6       1      5      
8      10       6      8      
13      14       4      13      
4      14       3      4      
3      14       16      3      
16      14       18      16      
8      21       19      8      
8      5       21      8      
8      6       5      8      
26      25       23      26      
16      28       21      16      
29      21       28      29      
19      29       40      19      
19      21       29      19      
28      25       26      28      
26      29       28      26      
1      3       5      1      
3      16       5      3      
21      5       16      21      
51      56       52      51      
54      52       66      54      
56      67       52      56      
67      66       52      67      
70      71       60      70      
86      71       87      86      
71      85       87      71      
66      88       54      66      
70      88       71      70      
71      88       85      71      
79      88       70      79      
54      88       79      54      
74      91       61      74      
88      96       85      88      
96      94       85      96      
99      71       100      99      
66      101       88      66      
88      101       96      88      
86      100       71      86      
61      103       74      61      
74      103       86      74      
103      100       86      103      
71      103       60      71      
103      71       99      103      
14      13       12      14      
17      15       12      17      
12      15       14      12      
14      15       18      14      
30      31       32      30      
15      44       18      15      
32      46       17      32      
17      46       15      17      
31      46       32      31      
47      31       30      47      
47      37       48      47      
37      47       30      37      
37      51       48      37      
48      51       52      48      
52      54       48      52      
46      55       15      46      
55      44       15      55      
48      57       47      48      
64      47       57      64      
46      31       64      46      
64      55       46      64      
64      79       63      64      
79      64       57      79      
31      47       64      31      
90      79       57      90      
79      90       54      79      
90      57       48      90      
54      90       48      54      
79      70       63      79      
25      24       23      25      
27      28       16      27      
16      18       44      16      
44      27       16      44      
25      45       24      25      
45      25       28      45      
27      45       28      27      
44      50       27      44      
44      55       50      44      
62      27       50      62      
55      62       50      55      
62      64       63      62      
64      62       55      64      
59      91       74      59      
61      91       59      61      
86      98       74      86      
74      98       63      74      
63      98       92      63      
104      92       75      104      
92      104       63      92      
63      104       62      63      
62      104       75      62      
59      60       61      59      
60      74       70      60      
59      74       60      59      
63      70       74      63      
103      61       60      103      
100      103       99      100      
81      89       83      81      
93      85       94      93      
95      89       81      95      
89      95       67      89      
67      95       66      67      
81      94       96      81      
81      96       95      81      
95      96       101      95      
95      101       66      95      
36      51       37      36      
68      67       56      68      
68      69       67      68      
36      97       51      36      
51      97       56      51      
83      82       81      83      
82      83       72      82      
77      82       73      77      
72      73       82      72      
83      89       72      83      
69      72       89      69      
89      67       69      89      
81      82       94      81      
11      10       8      11      
19      20       8      19      
23      24       26      23      
40      41       19      40      
29      41       40      29      
41      20       19      41      
8      43       11      8      
20      43       8      20      
20      41       43      20      
29      45       41      29      
24      45       26      24      
45      29       26      45      
62      75       78      62      
41      45       78      41      
62      78       27      62      
45      27       78      45      
33      34       35      33      
33      36       37      33      
35      36       33      35      
43      35       34      43      
34      11       43      34      
41      49       43      41      
58      36       35      58      
43      58       35      43      
49      58       43      49      
69      68       72      69      
68      73       72      68      
58      75       76      58      
76      75       77      76      
41      78       49      41      
78      58       49      78      
92      82       77      92      
58      97       36      58      
73      97       77      73      
76      97       58      76      
77      97       76      77      
68      56       97      68      
68      97       73      68      
77      75       92      77      
58      78       75      58      
85      86       87      85      
94      82       93      94      
93      98       85      93      
82      98       93      82      
92      98       82      92      
86      85       98      86      
