title = " tecplot file for process Mesh " 
variables = "x",  "y", "z", "cell_type" 
zone N = 87 E = 381 DATAPACKING = BLOCK,  VARLOCATION = ([4]=CELLCENTERED), ZONETYPE=FETETRAHEDRON 
-5.000000e-01     
-5.000000e-01     -4.138705e-01     -5.000000e-01     -4.162747e-01     -5.000000e-01     
-5.000000e-01     -5.000000e-01     -4.229687e-01     -5.000000e-01     -5.000000e-01     
-5.000000e-01     -5.000000e-01     -4.185837e-01     -5.000000e-01     -5.000000e-01     
-4.203127e-01     -5.000000e-01     -5.000000e-01     -4.198408e-01     -5.000000e-01     
-4.158524e-01     -4.211338e-01     -5.000000e-01     -4.218143e-01     -5.000000e-01     
-5.000000e-01     -5.000000e-01     -4.094840e-01     -5.000000e-01     -4.188366e-01     
-5.000000e-01     -4.113460e-01     -3.985716e-01     -5.000000e-01     -2.601134e-01     
-2.758446e-01     -2.361093e-01     -3.313112e-01     -2.301975e-01     -3.203865e-01     
-2.019927e-01     -1.286335e-01     -1.173383e-01     -3.942657e-01     -4.012225e-01     
-4.032624e-01     -5.000000e-01     -4.146330e-01     -4.039991e-01     -4.073702e-01     
-3.537007e-01     -3.341502e-01     -1.449325e-01     -3.949485e-01     -4.012454e-01     
-2.961233e-01     -3.326272e-01     -2.991160e-01     -3.565180e-01     -3.233067e-01     
-3.502059e-01     -2.274926e-01     -2.042337e-01     -3.699585e-01     -3.680274e-01     
-2.808388e-01     -4.459200e-01     -3.294297e-01     -2.711591e-01     -1.869388e-01     
-2.956912e-01     -3.316247e-01     -3.205075e-01     -3.104070e-01     -2.368652e-01     
-2.226762e-01     -2.376792e-01     -1.985911e-01     -1.976659e-01     -2.844957e-01     
-1.466239e-01     -2.383653e-01     -2.703984e-01     -1.324849e-01     -3.351896e-01     
-1.919929e-01     
-4.148503e-01     
-5.000000e-01     -5.000000e-01     -5.000000e-01     -5.000000e-01     -4.172805e-01     
-5.000000e-01     -2.636376e-01     -2.829296e-01     -3.360925e-01     -3.334971e-01     
-2.490588e-01     -2.396219e-01     -2.789189e-01     -3.251314e-01     -7.952470e-02     
-5.276190e-02     -6.024899e-03     -1.694939e-01     -3.900058e-01     -4.166445e-01     
-5.000000e-01     -3.885426e-01     -5.781284e-02     -1.074298e-01     -1.120386e-01     
-1.524380e-01     -2.324125e-01     -2.034846e-01     -2.256034e-01     -3.840169e-01     
-4.120689e-01     -5.000000e-01     -1.273472e-01     -1.330231e-01     -5.000000e-01     
-4.175052e-01     -5.000000e-01     -5.000000e-01     -5.000000e-01     -5.000000e-01     
-4.140975e-01     -5.000000e-01     -3.970053e-01     -3.372304e-01     -1.330280e-01     
-2.767875e-01     -3.214402e-01     -2.913535e-01     -1.467599e-01     -1.867207e-01     
-4.186062e-01     -5.000000e-01     -4.016415e-01     -3.311771e-01     -3.332027e-01     
-3.807663e-01     -2.137908e-01     -3.408730e-01     -4.298556e-01     -5.000000e-01     
-4.240284e-01     -4.282821e-01     -2.943101e-01     -1.035602e-02     -6.365939e-02     
-9.868880e-02     -6.669972e-02     -1.397059e-01     -1.962442e-01     -3.196433e-01     
-3.089671e-01     -3.662413e-01     -1.485078e-01     -2.861248e-01     -1.330900e-01     
-1.367538e-01     -1.870477e-01     -6.445561e-02     -4.889083e-02     -7.619716e-02     
-2.178111e-01     -2.596275e-01     -2.478608e-01     -1.283313e-01     -2.679621e-01     
-2.393590e-01     
-4.722725e-02     
-1.000000e-01     -4.724924e-02     0.000000e+00     5.081917e-02     5.080336e-02     
1.000000e-01     5.341879e-02     9.602862e-02     9.912744e-02     4.844494e-03     
1.355396e-01     -2.877674e-02     9.828848e-03     -9.002650e-02     2.557900e-02     
7.028715e-02     -4.723589e-02     5.774721e-02     9.963554e-02     1.489758e-01     
1.490320e-01     2.806867e-03     -1.486378e-01     -1.848963e-01     -2.427303e-01     
-1.633208e-01     -1.286301e-01     -1.770769e-01     -2.392799e-01     -9.431583e-02     
-1.456937e-01     -1.457775e-01     7.441303e-03     -6.100230e-02     5.362963e-02     
9.827148e-03     -2.899072e-02     4.842534e-03     -1.294905e-01     -1.909427e-01     
-1.785075e-01     -6.285734e-02     7.710532e-03     5.165750e-02     -2.917118e-01     
-9.746187e-02     -1.905254e-01     -2.003570e-01     -9.251752e-02     8.501758e-02     
4.988613e-02     9.926986e-02     -9.245495e-02     -4.259460e-02     -1.428054e-01     
-1.061380e-01     -3.136316e-02     6.341390e-02     -1.495335e-01     -9.022320e-02     
-4.481126e-02     -7.890762e-02     -1.315150e-01     -4.206277e-02     -1.203543e-01     
-2.804394e-02     -8.017357e-02     -2.178115e-01     -1.314117e-01     -2.639060e-02     
-3.352824e-02     1.341087e-04     -8.291304e-02     -1.278330e-01     -2.108879e-01     
4.869574e-02     -3.878390e-02     -9.710986e-02     -2.167022e-01     -1.566228e-01     
-1.537561e-02     6.881271e-03     -7.374091e-02     -5.773290e-02     3.235405e-02     
-7.622989e-02     

0      
0      0      0      0      0      0      0      0      0      0      
0      0      0      0      0      0      0      0      0      0      
0      0      0      0      0      0      0      0      0      0      
0      0      0      0      0      0      0      0      0      0      
0      0      0      0      0      0      0      0      0      0      
0      0      0      0      0      0      0      0      0      0      
0      0      0      0      0      0      0      0      0      0      
0      0      0      0      0      0      0      0      0      0      
0      0      0      0      0      0      0      0      0      0      
0      0      0      0      0      0      0      0      0      0      
0      0      0      0      0      0      0      0      0      0      
0      0      0      0      0      0      0      0      0      0      
0      0      0      0      0      0      0      0      0      0      
0      0      0      0      0      0      0      0      0      0      
0      0      0      0      0      0      0      0      0      0      
0      0      0      0      0      0      0      0      0      0      
0      0      0      0      0      0      0      0      0      0      
0      0      0      0      0      0      0      0      0      0      
0      0      0      0      0      0      0      0      0      0      
0      0      0      0      0      0      0      0      0      0      
0      0      0      0      0      0      0      0      0      0      
0      0      0      0      0      0      0      0      0      0      
0      0      0      0      0      0      0      0      0      0      
0      0      1      1      1      1      1      1      1      1      
1      1      1      1      1      1      1      1      1      1      
1      1      1      1      1      1      1      1      1      1      
1      1      1      1      1      1      1      1      1      1      
1      1      1      1      1      1      1      1      1      1      
1      1      1      1      1      1      1      1      1      1      
1      1      1      1      1      1      1      1      1      1      
1      1      1      1      1      1      1      1      1      1      
1      1      1      1      1      1      1      1      1      1      
1      1      1      1      1      1      1      1      1      1      
1      1      1      1      1      1      1      1      1      1      
1      1      1      1      1      1      1      1      1      1      
1      1      1      1      1      1      1      1      1      1      
1      1      1      1      1      1      1      1      1      1      
1      1      1      1      1      1      1      1      1      1      


1      2      3      31      
3      2      1      4      
1      3      4      23      
4      5      6      23      
6      5      4      7      
7      6      5      20      
8      9      10      12      
10      9      8      11      
11      10      9      45      
11      9      8      14      
8      9      12      51      
13      14      11      8      
11      14      13      15      
15      11      14      55      
15      14      13      47      
13      14      8      51      
8      14      9      51      
11      9      14      45      
6      21      20      7      
20      21      6      10      
6      20      10      23      
5      20      6      23      
7      20      5      22      
22      20      5      53      
11      23      10      45      
10      23      11      6      
6      23      11      1      
10      23      20      45      
1      23      11      15      
6      23      1      4      
5      20      23      52      
5      23      4      3      
3      23      1      31      
5      23      3      62      
15      1      23      31      
15      23      11      55      
24      25      27      68      
27      25      24      26      
26      27      25      29      
28      29      30      49      
30      29      28      27      
27      30      29      26      
27      29      28      50      
26      30      29      46      
26      29      25      46      
27      25      29      50      
1      31      15      32      
32      1      31      2      
32      31      15      56      
15      31      23      55      
3      23      31      62      
3      31      33      60      
33      31      3      2      
16      34      19      17      
19      34      16      35      
35      19      34      13      
35      34      16      68      
17      34      19      51      
16      34      17      68      
13      19      34      51      
13      34      35      50      
39      38      37      62      
37      38      39      36      
39      37      36      52      
45      20      10      9      
20      45      23      52      
11      23      45      55      
11      45      14      55      
9      14      45      86      
25      46      29      69      
28      47      15      13      
15      47      28      48      
48      15      47      56      
48      47      28      49      
28      47      13      50      
13      47      14      50      
15      14      47      55      
47      49      48      56      
28      48      49      30      
28      49      47      29      
29      49      47      75      
28      29      47      50      
34      50      13      14      
35      13      50      28      
35      50      34      68      
34      50      14      58      
13      34      14      51      
14      50      47      58      
35      28      50      27      
47      50      29      74      
27      50      35      68      
29      50      25      69      
27      25      50      68      
13      19      51      8      
14      51      34      58      
9      51      14      86      
51      12      8      19      
37      52      39      62      
36      39      52      53      
53      39      52      5      
23      52      45      73      
39      52      5      62      
53      5      52      20      
5      52      23      62      
15      55      47      56      
14      47      55      58      
23      55      31      62      
15      31      55      56      
55      56      57      75      
57      56      55      31      
31      55      57      62      
15      56      48      32      
49      56      47      75      
14      58      55      86      
47      55      58      75      
50      58      34      74      
47      58      50      74      
51      58      14      86      
61      60      33      41      
33      60      61      3      
3      60      61      62      
31      60      3      62      
61      60      41      40      
40      60      41      42      
61      60      40      57      
61      60      57      62      
40      57      60      42      
40      61      57      63      
42      40      57      63      
23      55      62      73      
57      62      55      73      
31      62      57      60      
37      52      62      73      
5      62      3      39      
23      62      52      73      
39      62      3      61      
39      62      61      38      
57      61      62      63      
38      62      61      63      
37      62      38      63      
42      40      63      54      
42      63      57      64      
54      63      42      64      
40      63      54      43      
44      63      38      43      
38      63      44      37      
37      63      44      71      
43      44      63      54      
43      63      38      40      
44      63      54      71      
62      63      37      57      
57      37      62      73      
57      63      37      71      
61      38      63      40      
54      63      64      71      
57      64      63      71      
34      66      65      68      
65      66      34      67      
34      67      66      74      
66      68      34      50      
50      66      68      25      
50      34      66      74      
34      68      65      17      
16      68      17      18      
18      16      68      35      
18      68      17      65      
35      68      18      24      
25      50      66      69      
27      24      68      35      
66      69      50      74      
50      69      29      74      
64      71      57      72      
64      71      72      84      
57      72      71      37      
57      64      72      75      
72      71      37      59      
59      72      71      83      
59      37      72      73      
72      73      37      57      
59      37      73      52      
59      73      72      86      
57      72      73      55      
52      73      59      45      
72      73      55      86      
57      72      55      75      
45      73      59      86      
45      23      73      55      
45      55      73      86      
69      74      66      81      
29      74      69      70      
70      29      74      75      
70      74      69      81      
29      47      74      75      
66      74      67      81      
34      67      74      58      
47      58      74      75      
58      67      74      78      
72      75      64      84      
47      75      56      55      
70      75      74      84      
58      74      75      84      
55      75      72      58      
77      78      58      83      
58      78      77      67      
67      78      77      85      
58      78      74      84      
67      74      78      79      
74      70      79      81      
79      70      74      78      
74      78      70      84      
67      74      79      81      
67      79      78      85      
79      81      70      76      
79      81      76      80      
70      76      81      69      
72      71      83      84      
72      83      59      86      
75      84      72      58      
64      84      75      70      
58      78      84      83      
70      84      78      87      
83      84      58      72      
72      58      83      86      
78      84      83      87      
64      71      84      87      
83      84      71      87      
64      84      70      87      
77      85      78      82      
77      82      78      83      
45      14      55      86      
55      58      72      86      
83      87      71      82      
82      83      87      78      
2      33       3      2      
2      3       4      2      
22      7       5      22      
5      7       4      5      
5      4       3      5      
22      5       53      22      
3      33       61      3      
61      33       41      61      
53      5       39      53      
39      5       3      39      
3      61       39      3      
61      41       40      61      
53      39       36      53      
39      61       38      39      
39      38       36      39      
61      40       38      61      
38      40       43      38      
32      2       1      32      
1      2       4      1      
7      21       6      7      
7      6       4      7      
4      6       1      4      
6      21       10      6      
32      1       15      32      
32      15       48      32      
6      10       11      6      
6      11       1      6      
15      1       11      15      
48      15       28      48      
48      28       30      48      
26      30       27      26      
27      30       28      27      
11      10       8      11      
8      10       12      8      
15      11       13      15      
13      11       8      13      
28      15       13      28      
27      28       35      27      
35      28       13      35      
13      8       19      13      
13      19       35      13      
8      12       19      8      
26      27       24      26      
27      35       24      27      
35      19       16      35      
18      24       35      18      
35      16       18      35      
24      25       26      24      
46      26       25      46      
65      67       66      65      
66      68       65      66      
65      68       18      65      
18      68       24      18      
25      24       68      25      
25      68       66      25      
66      69       25      66      
25      69       46      25      
66      67       81      66      
67      79       81      67      
69      81       76      69      
81      69       66      81      
80      81       79      80      
76      81       80      76      
31      33       2      31      
31      2       32      31      
40      41       42      40      
30      46       29      30      
26      46       30      26      
30      49       48      30      
29      49       30      29      
56      57       31      56      
49      56       48      49      
48      56       32      48      
56      31       32      56      
31      60       33      31      
31      57       60      31      
33      60       41      33      
41      60       42      41      
60      57       42      60      
42      64       54      42      
64      42       57      64      
29      69       70      29      
46      69       29      46      
64      75       70      64      
75      64       57      75      
49      75       56      49      
75      49       29      75      
29      70       75      29      
56      75       57      56      
69      76       70      69      
64      71       54      64      
71      44       54      71      
76      79       70      76      
70      79       78      70      
80      79       76      80      
79      85       78      79      
78      85       82      78      
82      87       78      82      
78      87       70      78      
71      64       87      71      
71      87       82      71      
70      87       64      70      
43      54       44      43      
43      40       54      43      
42      54       40      42      
10      9       12      10      
21      20       10      21      
7      22       20      7      
7      20       21      7      
38      37       36      38      
20      45       9      20      
20      9       10      20      
37      52       36      37      
36      52       53      36      
20      52       45      20      
37      59       52      37      
20      53       52      20      
22      53       20      22      
37      71       59      37      
52      59       45      52      
16      17       18      16      
19      17       16      19      
12      51       19      12      
9      51       12      9      
17      51       34      17      
51      17       19      51      
34      65       17      34      
67      65       34      67      
65      18       17      65      
77      85       67      77      
67      85       79      67      
43      44       38      43      
51      58       34      51      
38      44       37      38      
34      58       67      34      
71      37       44      71      
58      77       67      58      
82      83       71      82      
71      83       59      71      
82      85       77      82      
58      83       77      58      
59      86       45      59      
45      86       9      45      
9      86       51      9      
58      51       86      58      
58      86       83      58      
59      83       86      59      
83      82       77      83      
