title = " tecplot file for process Mesh " 
variables = "x",  "y", "z", "cell_type" 
zone N = 86 E = 375 DATAPACKING = BLOCK,  VARLOCATION = ([4]=CELLCENTERED), ZONETYPE=FETETRAHEDRON 
-5.000000e-01     
-5.000000e-01     -4.148796e-01     -5.000000e-01     -5.000000e-01     -5.000000e-01     
-4.027380e-01     -5.000000e-01     -5.000000e-01     -4.144943e-01     -5.000000e-01     
-5.000000e-01     -4.296631e-01     -4.306243e-01     -5.000000e-01     -4.184488e-01     
-5.000000e-01     -5.000000e-01     -5.000000e-01     -4.156480e-01     -5.000000e-01     
-4.158524e-01     -5.000000e-01     -5.000000e-01     -4.000000e-01     -3.434496e-01     
-3.393101e-01     -5.000000e-01     -4.229687e-01     -5.000000e-01     -5.000000e-01     
-5.000000e-01     -4.123059e-01     -5.000000e-01     -5.000000e-01     -4.194518e-01     
-4.198408e-01     -4.149058e-01     -5.000000e-01     -4.187052e-01     -4.176478e-01     
-3.283097e-01     -4.181735e-01     -5.000000e-01     -4.075333e-01     -2.463127e-01     
-2.801921e-01     -2.601134e-01     -3.341502e-01     -2.758446e-01     -2.361093e-01     
-2.323866e-01     -2.759888e-01     -2.632082e-01     -3.323717e-01     -2.145795e-01     
-3.431829e-01     -2.920560e-01     -3.347548e-01     -3.283464e-01     -3.007907e-01     
-3.006369e-01     -3.942657e-01     -4.235672e-01     -4.098612e-01     -4.166970e-01     
-3.158608e-01     -3.537007e-01     -3.122635e-01     -4.291954e-01     -3.376967e-01     
-2.991160e-01     -2.833985e-01     -2.294137e-01     -3.493834e-01     -3.323582e-01     
-1.875370e-01     -1.634307e-01     -3.023422e-01     -2.008274e-01     -3.356850e-01     
-2.062115e-01     -1.869388e-01     -3.380982e-01     -2.431211e-01     -2.607704e-01     

-1.355545e-01     
-2.000000e-01     -1.336553e-01     -1.000000e-01     -3.000000e-01     -3.394627e-01     
-3.377795e-01     -4.000000e-01     -2.358458e-01     -2.341118e-01     -4.306860e-01     
-5.000000e-01     -4.299559e-01     -5.000000e-01     -5.000000e-01     -5.000000e-01     
-4.186464e-01     -5.000000e-01     -4.161203e-01     -5.000000e-01     -5.000000e-01     
-5.000000e-01     -4.166445e-01     -5.000000e-01     -5.000000e-01     -4.169262e-01     
-5.000000e-01     -2.490588e-01     -2.829296e-01     -3.295694e-01     -3.360925e-01     
-2.636000e-01     -2.246238e-01     -1.744257e-01     -2.334176e-01     -3.962650e-01     
-3.900058e-01     -2.165609e-01     -3.329283e-01     -3.892317e-01     -3.874447e-01     
-5.000000e-01     -7.989080e-02     -6.874158e-02     -2.986385e-01     -5.000000e-01     
-4.289860e-01     -5.000000e-01     -5.000000e-01     -4.175052e-01     -5.000000e-01     
-5.000000e-01     -4.074786e-01     -5.000000e-01     -5.000000e-01     -4.137066e-01     
-3.086997e-01     -3.285486e-01     -2.597711e-01     -1.703180e-01     -2.185713e-01     
-1.156731e-01     -3.372304e-01     -3.085903e-01     -1.646944e-01     -1.607188e-01     
-3.209209e-01     -4.186062e-01     -4.037477e-01     -2.896969e-01     -3.607227e-01     
-3.408730e-01     -2.712165e-01     -2.894801e-01     -4.245095e-01     -2.475493e-01     
-4.120794e-01     -5.000000e-01     -4.173945e-01     -3.187790e-01     -1.982943e-01     
-2.943064e-01     -3.196433e-01     -3.355631e-01     -3.723038e-01     -3.530604e-01     

4.129811e-01     
5.000000e-01     5.000000e-01     5.000000e-01     5.000000e-01     4.032489e-01     
5.000000e-01     5.000000e-01     4.138731e-01     5.000000e-01     4.300588e-01     
5.000000e-01     5.000000e-01     4.301194e-01     4.000000e-01     3.445218e-01     
3.444106e-01     3.000000e-01     2.468152e-01     2.469178e-01     2.000000e-01     
1.490320e-01     1.489758e-01     1.000000e-01     5.000000e-01     5.000000e-01     
4.034895e-01     1.355396e-01     9.602862e-02     1.950294e-01     9.912744e-02     
3.348193e-01     3.581526e-01     3.257654e-01     2.396957e-01     3.925728e-01     
9.963554e-02     1.781491e-01     2.937581e-01     2.949947e-01     1.969401e-01     
1.953421e-01     3.847235e-01     3.254343e-01     2.428277e-01     1.360649e-01     
9.632148e-02     5.362963e-02     9.926986e-02     9.827148e-03     -2.899072e-02     
2.408308e-01     2.901776e-01     3.355484e-01     2.941536e-01     1.794024e-01     
4.093148e-01     5.000000e-01     5.000000e-01     5.000000e-01     4.172024e-01     
4.136901e-01     5.165750e-02     3.317235e-01     2.706006e-01     4.172066e-01     
1.557527e-01     4.988613e-02     4.058960e-01     4.284827e-01     2.375941e-01     
6.341390e-02     2.924883e-01     4.127837e-01     3.313243e-01     2.142534e-01     
8.889247e-02     5.839041e-02     1.805366e-01     8.222970e-02     3.139937e-01     
2.013016e-01     -2.639060e-02     3.235745e-01     8.691461e-02     2.044423e-01     


0      
0      0      0      0      0      0      0      0      0      0      
0      0      0      0      0      0      0      0      0      0      
0      0      0      0      0      0      0      0      0      0      
0      0      0      0      0      0      0      0      0      0      
0      0      0      0      0      0      0      0      0      0      
0      0      0      0      0      0      0      0      0      0      
0      0      0      0      0      0      0      0      0      0      
0      0      0      0      0      0      0      0      0      0      
0      0      0      0      0      0      0      0      0      0      
0      0      0      0      0      0      0      0      0      0      
0      0      0      0      0      0      0      0      0      0      
0      0      0      0      0      0      0      0      0      0      
0      0      0      0      0      0      0      0      0      0      
0      0      0      0      0      0      0      0      0      0      
0      0      0      0      0      0      0      0      0      0      
0      0      0      0      0      0      0      0      0      0      
0      0      0      0      0      0      0      0      0      0      
0      0      0      0      0      0      0      0      0      0      
0      0      0      0      0      0      0      0      0      0      
0      0      0      0      0      0      0      0      0      0      
0      0      0      0      0      0      0      0      0      0      
0      0      0      0      0      0      0      0      0      0      
0      0      0      0      0      0      0      0      0      0      
0      0      1      1      1      1      1      1      1      1      
1      1      1      1      1      1      1      1      1      1      
1      1      1      1      1      1      1      1      1      1      
1      1      1      1      1      1      1      1      1      1      
1      1      1      1      1      1      1      1      1      1      
1      1      1      1      1      1      1      1      1      1      
1      1      1      1      1      1      1      1      1      1      
1      1      1      1      1      1      1      1      1      1      
1      1      1      1      1      1      1      1      1      1      
1      1      1      1      1      1      1      1      1      1      
1      1      1      1      1      1      1      1      1      1      
1      1      1      1      1      1      1      1      1      1      
1      1      1      1      1      1      1      1      1      1      
1      1      1      1      1      1      1      1      1      1      
1      1      1      1      

1      2      3      66      
3      2      1      4      
5      6      7      70      
7      6      5      8      
8      7      6      36      
2      9      10      66      
10      9      2      5      
5      10      9      70      
11      12      13      14      
13      12      11      8      
8      11      13      36      
14      12      13      25      
11      14      13      36      
11      12      14      15      
11      15      14      36      
16      17      18      40      
18      17      16      15      
16      15      17      36      
19      20      18      40      
18      20      19      21      
19      21      20      41      
22      21      23      41      
23      21      22      24      
22      23      24      37      
13      14      25      26      
25      26      14      27      
14      27      26      36      
13      14      26      36      
28      29      30      38      
30      29      28      31      
31      30      29      41      
32      33      34      35      
34      33      32      9      
9      34      33      66      
9      33      32      70      
35      33      34      65      
32      33      35      45      
17      36      6      64      
6      36      17      11      
11      6      36      8      
11      36      17      15      
16      36      14      15      
14      36      16      27      
27      36      16      75      
13      36      26      7      
26      36      27      69      
7      13      36      8      
7      36      26      57      
7      6      36      70      
16      36      17      40      
23      37      22      41      
35      38      30      45      
30      38      35      28      
30      38      29      45      
39      40      17      64      
17      40      39      19      
19      17      40      18      
19      40      39      41      
17      40      36      64      
16      36      40      75      
16      40      18      20      
16      40      20      75      
19      20      40      41      
19      41      39      30      
30      19      41      23      
30      41      39      45      
39      41      40      45      
23      19      41      21      
23      41      30      31      
40      41      20      71      
42      41      22      79      
22      41      42      20      
20      22      41      21      
20      41      42      71      
22      41      37      79      
23      37      41      31      
31      37      41      29      
1      43      34      66      
34      43      1      44      
40      45      41      71      
39      45      40      64      
41      45      30      29      
39      30      45      35      
29      41      45      67      
35      45      39      32      
35      38      45      65      
32      45      39      64      
35      45      33      65      
32      33      45      64      
46      47      48      77      
48      47      46      49      
49      48      47      68      
49      47      46      79      
55      52      53      42      
53      52      55      54      
55      53      54      75      
52      53      42      79      
55      42      53      71      
7      57      58      59      
58      57      7      26      
26      58      57      69      
59      7      57      70      
59      57      58      74      
59      61      10      70      
10      61      59      60      
60      10      61      66      
17      39      64      6      
36      64      40      84      
39      64      6      32      
6      64      36      70      
6      32      64      70      
40      64      45      84      
33      45      64      84      
33      64      32      70      
33      65      45      81      
34      65      33      66      
43      66      1      3      
3      43      66      62      
34      1      66      9      
34      66      43      65      
43      65      66      81      
33      66      65      81      
9      1      66      2      
9      66      33      70      
10      2      66      3      
10      66      9      70      
3      66      10      60      
43      66      62      81      
3      62      66      60      
62      66      60      61      
61      62      66      81      
61      66      10      70      
41      45      67      71      
41      67      29      37      
37      41      67      79      
37      67      29      63      
37      67      63      68      
68      48      47      50      
47      50      48      77      
47      68      50      72      
49      68      47      79      
27      69      36      75      
26      36      69      57      
58      57      69      74      
64      70      33      57      
57      64      70      36      
57      33      64      84      
57      70      33      61      
9      70      32      6      
57      70      61      59      
33      61      70      66      
33      57      61      81      
61      66      33      81      
57      59      61      74      
59      70      10      7      
10      7      70      5      
57      70      7      36      
36      57      64      84      
6      9      70      5      
41      71      67      79      
45      67      71      76      
20      40      71      75      
42      71      55      20      
20      71      55      75      
42      71      41      79      
45      71      40      84      
68      72      47      67      
50      47      72      85      
67      68      72      63      
67      47      68      79      
67      72      47      85      
74      61      57      73      
57      73      61      81      
57      74      73      84      
57      69      74      84      
53      75      55      71      
54      55      75      27      
54      75      53      69      
55      75      27      16      
54      27      75      69      
16      55      75      20      
36      40      75      84      
40      71      75      84      
36      75      69      84      
53      75      71      84      
45      76      71      73      
67      71      76      86      
73      76      71      86      
45      73      71      84      
45      76      73      81      
48      77      50      51      
47      50      77      85      
78      77      48      51      
48      77      78      46      
46      47      77      56      
47      77      56      85      
46      47      56      79      
53      79      52      56      
42      52      79      46      
42      79      53      71      
53      79      56      86      
52      56      79      46      
42      46      79      49      
67      79      71      86      
37      79      67      68      
67      47      79      85      
37      79      68      49      
37      79      49      22      
42      49      79      22      
56      79      47      85      
33      57      81      84      
57      73      81      84      
45      81      73      84      
33      81      45      84      
57      36      69      84      
69      75      53      84      
53      71      79      86      
71      84      73      53      
53      73      71      86      
83      85      77      50      
77      85      83      80      
80      77      85      56      
80      85      83      72      
72      85      83      50      
80      85      72      67      
56      85      80      86      
79      85      56      86      
67      85      79      86      
80      85      67      86      
80      86      82      56      
82      86      80      67      
67      82      86      76      
76      82      86      73      
25      12       14      25      
14      12       15      14      
25      14       27      25      
14      15       16      14      
16      15       18      16      
16      18       20      16      
20      18       21      20      
20      21       22      20      
22      21       24      22      
27      14       16      27      
16      20       55      16      
16      55       27      16      
54      27       55      54      
20      22       42      20      
20      42       55      20      
22      49       42      22      
55      42       52      55      
55      52       54      55      
42      49       46      42      
42      46       52      42      
49      48       46      49      
48      51       78      48      
46      48       78      46      
12      8       11      12      
12      11       15      12      
11      8       6      11      
6      8       5      6      
15      11       17      15      
15      17       18      15      
18      17       19      18      
18      19       21      18      
6      5       9      6      
9      5       2      9      
21      19       23      21      
21      23       24      21      
9      2       1      9      
1      2       4      1      
11      6       17      11      
19      17       39      19      
39      17       6      39      
6      9       32      6      
6      32       39      6      
9      1       34      9      
9      34       32      9      
1      44       34      1      
23      19       30      23      
30      19       39      30      
31      23       30      31      
30      39       35      30      
35      39       32      35      
32      34       35      32      
31      30       28      31      
28      30       35      28      
12      25       13      12      
12      13       8      12      
13      25       26      13      
8      13       7      8      
8      7       5      8      
5      7       10      5      
5      10       2      5      
2      10       3      2      
2      3       4      2      
7      13       26      7      
26      58       7      26      
10      7       59      10      
59      7       58      59      
3      10       60      3      
60      10       59      60      
28      29       31      28      
31      37       23      31      
37      22       24      37      
23      37       24      23      
48      50       51      48      
29      63       37      29      
31      29       37      31      
48      68       50      48      
49      68       48      49      
63      68       37      63      
68      72       50      68      
68      49       37      68      
37      49       22      37      
72      83       50      72      
63      72       68      63      
26      25       27      26      
52      53       54      52      
46      56       52      46      
60      59       61      60      
60      62       3      60      
3      62       43      3      
60      61       62      60      
52      56       53      52      
54      69       27      54      
26      27       69      26      
26      69       58      26      
61      74       73      61      
69      74       58      69      
58      74       59      58      
59      74       61      59      
78      77       46      78      
77      56       46      77      
61      81       62      61      
73      81       61      73      
56      77       80      56      
56      80       82      56      
53      69       54      53      
53      84       69      53      
73      84       53      73      
74      84       73      74      
69      84       74      69      
56      86       53      56      
82      86       56      82      
53      86       73      53      
82      73       86      82      
35      38       28      35      
28      38       29      28      
44      43       34      44      
38      45       29      38      
34      43       65      34      
65      45       38      65      
35      65       38      35      
34      65       35      34      
43      81       65      43      
81      76       45      81      
65      81       45      65      
81      43       62      81      
45      67       29      45      
29      67       63      29      
45      76       67      45      
50      77       51      50      
78      51       77      78      
80      72       67      80      
76      81       73      76      
67      72       63      67      
76      82       67      76      
67      82       80      67      
50      83       77      50      
80      77       83      80      
76      73       82      76      
80      83       72      80      
4      3       1      4      
43      44       1      43      
1      3       43      1      
