title = " tecplot file for process Mesh " 
variables = "x",  "y", "z", "cell_type" 
zone N = 86 E = 380 DATAPACKING = BLOCK,  VARLOCATION = ([4]=CELLCENTERED), ZONETYPE=FETETRAHEDRON 
5.000000e-01     
5.000000e-01     4.167259e-01     5.000000e-01     5.000000e-01     4.324995e-01     
5.000000e-01     5.000000e-01     4.159608e-01     5.000000e-01     5.000000e-01     
4.198149e-01     5.000000e-01     5.000000e-01     5.000000e-01     3.400973e-01     
4.064314e-01     5.000000e-01     5.000000e-01     5.000000e-01     4.152798e-01     
5.000000e-01     4.057430e-01     5.000000e-01     4.180293e-01     5.000000e-01     
3.274481e-01     4.041428e-01     5.000000e-01     4.052975e-01     2.404959e-01     
2.414977e-01     2.159937e-01     1.268115e-01     2.947400e-01     2.343925e-01     
1.998937e-01     3.241324e-01     4.183512e-01     3.342662e-01     4.077294e-01     
4.047434e-01     4.108065e-01     4.224014e-01     4.114264e-01     2.397751e-01     
3.033129e-01     3.217735e-01     3.697653e-01     1.294970e-01     4.238071e-01     
3.027383e-01     2.896198e-01     2.520400e-01     3.207333e-01     3.281580e-01     
3.415252e-01     2.859465e-01     2.637406e-01     1.639466e-01     1.294959e-01     
2.290357e-01     2.004760e-01     2.025246e-01     3.195085e-01     2.987331e-01     
3.198512e-01     3.244468e-01     2.518770e-01     2.018539e-01     2.262415e-01     
1.694549e-01     6.426166e-02     1.064675e-01     2.540741e-02     2.046196e-01     
1.277205e-01     1.414686e-01     2.167192e-01     1.626396e-01     3.301622e-01     
1.353615e-01     1.201253e-01     1.152956e-01     2.477107e-01     1.961222e-01     

5.000000e-01     
4.163841e-01     5.000000e-01     5.000000e-01     4.321533e-01     5.000000e-01     
5.000000e-01     4.162748e-01     5.000000e-01     5.000000e-01     7.489395e-03     
2.405180e-02     -4.451597e-03     1.309113e-01     6.911759e-02     5.000000e-01     
3.957228e-01     3.387404e-01     2.376631e-01     1.481582e-01     1.805055e-01     
5.648026e-02     1.160623e-01     3.268247e-01     3.852755e-01     4.126178e-01     
5.000000e-01     1.072413e-01     2.365064e-01     2.708136e-01     5.000000e-01     
5.000000e-01     4.087856e-01     4.221875e-01     4.135265e-01     5.000000e-01     
4.018832e-01     5.000000e-01     4.175448e-01     4.051028e-01     3.710129e-02     
1.429776e-01     2.101569e-01     3.466218e-01     3.180684e-01     4.138598e-01     
4.068890e-01     1.139438e-01     6.457785e-02     3.112636e-01     3.012151e-01     
1.367728e-01     1.197060e-01     4.633019e-02     3.692343e-02     2.526912e-02     
3.128120e-01     3.517081e-01     2.749316e-01     3.293132e-01     2.548939e-02     
6.272434e-02     -2.639549e-02     1.135500e-01     2.058578e-01     2.226308e-01     
2.125020e-01     3.239175e-01     3.252091e-01     2.480827e-01     2.874042e-01     
1.916033e-01     2.169469e-01     2.822351e-01     3.234153e-01     1.458495e-01     
1.688261e-01     1.021592e-01     1.858947e-01     2.253253e-01     9.571431e-02     
2.612971e-01     2.680161e-01     1.478539e-01     1.607134e-01     2.600626e-01     

0.000000e+00     
-3.482816e-02     -3.401332e-02     -1.000000e-01     4.966861e-02     5.093201e-02     
1.000000e-01     1.338316e-01     1.366332e-01     2.000000e-01     4.679255e-02     
-1.261730e-02     -5.497502e-02     5.067157e-02     -2.966943e-02     5.170053e-02     
7.764854e-02     4.944539e-02     -1.159630e-01     -6.347359e-02     -1.121779e-01     
-1.330806e-01     -1.415715e-02     -6.729391e-02     -7.909091e-02     -1.351507e-01     
-6.652191e-02     -1.759934e-01     -5.180564e-03     4.991876e-02     1.059542e-01     
-5.755671e-03     4.831717e-02     7.562970e-02     -1.174405e-01     -1.134911e-01     
1.555070e-01     1.724774e-01     1.595807e-01     -7.463498e-03     -1.084327e-01     
8.376815e-02     -2.246080e-02     2.956004e-03     1.320240e-01     -4.189146e-02     
1.163367e-01     -9.437782e-02     5.229300e-02     1.209283e-01     -1.002472e-01     
9.029134e-03     1.368564e-01     3.777487e-02     -1.595744e-01     -5.044899e-02     
-4.478111e-02     4.700822e-02     4.993615e-03     -1.825588e-02     -8.765528e-02     
-8.574390e-02     -2.407255e-02     -1.752547e-01     -5.911103e-02     -1.538955e-01     
8.662246e-02     1.327462e-01     -7.536281e-02     -1.201743e-01     9.904607e-02     
1.639470e-01     8.611439e-02     3.643805e-02     5.209260e-02     6.589751e-02     
-1.193353e-01     -1.128492e-02     -3.342174e-02     7.976097e-02     -2.305381e-01     
1.829845e-01     -3.925904e-02     6.105599e-02     -1.137563e-01     -2.894500e-02     


0      
0      0      0      0      0      0      0      0      0      0      
0      0      0      0      0      0      0      0      0      0      
0      0      0      0      0      0      0      0      0      0      
0      0      0      0      0      0      0      0      0      0      
0      0      0      0      0      0      0      0      0      0      
0      0      0      0      0      0      0      0      0      0      
0      0      0      0      0      0      0      0      0      0      
0      0      0      0      0      0      0      0      0      0      
0      0      0      0      0      0      0      0      0      0      
0      0      0      0      0      0      0      0      0      0      
0      0      0      0      0      0      0      0      0      0      
0      0      0      0      0      0      0      0      0      0      
0      0      0      0      0      0      0      0      0      0      
0      0      0      0      0      0      0      0      0      0      
0      0      0      0      0      0      0      0      0      0      
0      0      0      0      0      0      0      0      0      0      
0      0      0      0      0      0      0      0      0      0      
0      0      0      0      0      0      0      0      0      0      
0      0      0      0      0      0      0      0      0      0      
0      0      0      0      0      0      0      0      0      0      
0      0      0      0      0      0      0      0      0      0      
0      0      0      0      0      0      0      0      0      0      
0      0      0      0      0      0      0      0      0      0      
0      0      0      1      1      1      1      1      1      1      
1      1      1      1      1      1      1      1      1      1      
1      1      1      1      1      1      1      1      1      1      
1      1      1      1      1      1      1      1      1      1      
1      1      1      1      1      1      1      1      1      1      
1      1      1      1      1      1      1      1      1      1      
1      1      1      1      1      1      1      1      1      1      
1      1      1      1      1      1      1      1      1      1      
1      1      1      1      1      1      1      1      1      1      
1      1      1      1      1      1      1      1      1      1      
1      1      1      1      1      1      1      1      1      1      
1      1      1      1      1      1      1      1      1      1      
1      1      1      1      1      1      1      1      1      1      
1      1      1      1      1      1      1      1      1      1      
1      1      1      1      1      1      1      1      1      

1      2      3      5      
3      2      1      4      
4      3      2      25      
1      5      3      6      
6      1      5      7      
6      5      3      17      
3      5      2      44      
6      7      5      8      
6      8      5      17      
6      7      8      9      
8      9      7      10      
6      9      8      17      
15      14      12      23      
12      14      15      11      
15      12      11      13      
13      15      12      41      
16      17      6      3      
6      17      16      9      
9      17      16      47      
8      17      9      39      
5      17      8      18      
3      17      5      44      
18      17      8      45      
5      17      18      44      
14      23      15      20      
20      14      23      43      
20      23      15      41      
15      23      12      41      
14      12      23      49      
24      25      2      44      
2      25      24      26      
26      2      25      4      
2      25      3      44      
16      32      33      40      
33      32      16      31      
16      33      31      47      
34      37      33      50      
33      37      34      31      
31      33      37      47      
9      39      17      47      
8      17      39      45      
32      40      27      46      
27      40      32      16      
16      27      40      3      
33      40      32      46      
16      40      33      47      
27      40      35      46      
35      40      27      25      
25      35      40      57      
25      40      27      3      
3      40      16      17      
3      25      40      44      
21      41      28      48      
28      41      21      22      
22      41      21      20      
20      22      41      15      
20      41      21      23      
21      23      41      48      
21      20      23      43      
22      41      15      13      
12      41      23      56      
20      43      29      14      
29      43      20      19      
19      29      43      51      
19      43      20      21      
19      43      21      51      
42      43      30      67      
30      43      42      29      
29      30      43      44      
29      43      42      14      
14      43      42      23      
23      42      14      49      
23      43      42      52      
21      43      23      65      
43      44      30      57      
29      30      44      18      
29      44      43      51      
18      44      29      24      
24      18      44      2      
24      44      29      51      
18      30      44      17      
18      44      2      5      
25      44      24      51      
3      44      40      17      
17      44      40      58      
40      44      25      57      
18      17      45      30      
17      39      45      68      
27      36      46      35      
46      36      27      32      
35      46      40      69      
40      46      33      58      
40      47      16      17      
17      40      47      58      
33      47      40      58      
31      16      47      38      
38      16      47      9      
38      47      31      37      
9      47      38      39      
17      47      39      68      
33      37      47      71      
41      48      23      56      
21      23      48      65      
28      48      41      55      
23      49      12      56      
23      42      49      52      
33      34      50      60      
33      50      37      71      
44      51      25      57      
24      51      29      19      
43      51      44      57      
21      51      43      65      
43      52      23      65      
42      52      43      67      
49      52      42      53      
23      52      49      56      
52      53      49      54      
42      53      52      67      
54      52      53      76      
54      49      52      56      
41      55      48      56      
28      48      55      81      
48      56      55      62      
23      56      48      52      
48      52      56      62      
48      23      52      65      
54      56      52      62      
35      40      57      69      
44      57      40      58      
51      57      43      65      
30      57      44      58      
43      57      30      65      
47      58      33      71      
17      58      47      68      
44      58      17      30      
30      58      17      68      
30      57      58      59      
40      58      57      69      
57      58      59      69      
30      59      58      67      
30      57      59      65      
33      58      46      60      
40      46      58      69      
33      60      50      71      
34      50      60      74      
46      60      58      69      
33      58      60      71      
54      63      62      78      
62      63      54      56      
52      62      48      85      
54      62      52      79      
48      62      55      64      
48      64      55      81      
48      62      64      85      
52      65      43      67      
48      65      52      85      
57      65      51      66      
43      65      30      67      
59      65      57      69      
30      65      59      67      
52      67      53      76      
65      67      52      79      
59      67      65      79      
58      67      59      71      
30      67      58      68      
17      68      45      30      
47      68      58      71      
30      68      45      67      
58      68      67      71      
57      69      65      66      
66      69      65      70      
70      69      65      86      
66      70      65      85      
59      65      69      86      
59      69      58      60      
59      69      60      86      
58      59      60      71      
50      71      60      74      
59      71      67      76      
60      71      59      86      
50      75      74      34      
74      75      50      73      
50      74      73      80      
60      74      71      86      
50      71      74      80      
67      76      71      72      
72      67      76      53      
72      76      71      80      
52      67      76      79      
54      52      76      79      
71      76      59      80      
67      59      76      79      
61      77      62      78      
62      77      61      64      
64      62      77      85      
61      78      62      63      
54      78      62      79      
62      78      77      79      
54      79      76      78      
76      78      79      84      
52      79      62      85      
77      62      79      85      
77      79      78      83      
76      79      59      80      
76      80      72      84      
71      72      80      82      
73      80      74      84      
50      80      73      82      
59      71      80      86      
59      80      79      86      
76      79      80      84      
71      74      80      86      
71      80      50      82      
48      64      81      85      
73      82      80      72      
72      80      73      84      
78      83      79      84      
77      79      83      70      
80      84      79      83      
80      83      79      86      
80      84      83      74      
74      83      80      86      
70      85      77      79      
77      85      70      64      
70      85      79      65      
66      85      65      48      
65      79      70      86      
65      85      79      52      
48      66      85      81      
60      86      83      74      
83      86      60      70      
70      83      86      79      
70      86      60      69      
65      79      86      59      
10      8       7      10      
26      4       2      26      
2      4       1      2      
7      8       5      7      
7      5       1      7      
1      5       2      1      
26      2       24      26      
5      8       18      5      
2      5       18      2      
24      2       18      24      
24      18       29      24      
19      24       29      19      
19      29       20      19      
29      14       20      29      
20      14       15      20      
20      15       22      20      
13      22       15      13      
15      14       11      15      
13      15       11      13      
9      10       7      9      
4      3       1      4      
9      7       6      9      
6      7       1      6      
6      1       3      6      
9      6       16      9      
9      16       38      9      
6      3       16      6      
3      27       16      3      
38      16       31      38      
16      27       32      16      
16      32       31      16      
27      36       32      27      
19      20       21      19      
22      21       20      22      
24      25       26      24      
3      25       27      3      
25      3       4      25      
25      4       26      25      
22      28       21      22      
27      35       36      27      
27      25       35      27      
28      48       21      28      
51      25       24      51      
51      24       19      51      
19      21       51      19      
25      57       35      25      
51      57       25      51      
48      65       21      48      
48      66       65      48      
65      51       21      65      
51      65       66      51      
35      57       69      35      
66      69       57      66      
70      69       66      70      
48      81       66      48      
81      48       28      81      
70      85       64      70      
85      70       66      85      
81      85       66      81      
64      85       81      64      
51      66       57      51      
31      32       33      31      
31      33       34      31      
35      46       36      35      
36      46       32      36      
46      33       32      46      
34      33       60      34      
46      60       33      46      
35      69       46      35      
46      69       60      46      
75      74       73      75      
74      75       34      74      
60      74       34      60      
60      69       70      60      
61      77       64      61      
61      78       77      61      
64      77       70      64      
78      83       77      78      
77      83       70      77      
70      83       60      70      
78      84       83      78      
84      73       74      84      
83      84       74      83      
83      74       60      83      
61      62       63      61      
56      63       62      56      
55      56       62      55      
55      62       64      55      
64      62       61      64      
11      12       13      11      
41      28       22      41      
41      22       13      41      
12      41       13      12      
41      55       28      41      
41      56       55      41      
12      56       41      12      
64      81       55      64      
55      81       28      55      
72      76       53      72      
53      76       54      53      
78      61       63      78      
54      78       63      54      
78      54       76      78      
72      82       73      72      
76      84       78      76      
72      73       84      72      
72      84       76      72      
14      42       49      14      
53      49       42      53      
49      53       54      49      
56      49       54      56      
63      56       54      63      
9      8       10      9      
29      18       30      29      
9      39       8      9      
38      39       9      38      
29      42       14      29      
30      42       29      30      
18      45       30      18      
18      8       45      18      
39      45       8      39      
47      39       38      47      
37      47       38      37      
42      67       53      42      
30      67       42      30      
45      67       30      45      
47      68       39      47      
39      68       45      39      
45      68       67      45      
47      71       68      47      
37      71       47      37      
68      71       67      68      
67      71       72      67      
67      72       53      67      
50      71       37      50      
50      82       71      50      
82      72       71      82      
14      12       11      14      
14      49       12      14      
49      56       12      49      
34      37       31      34      
38      31       37      38      
34      50       37      34      
75      73       50      75      
75      50       34      75      
73      82       50      73      
