title = " tecplot file for process Mesh " 
variables = "x",  "y", "z", "cell_type" 
zone N = 100 E = 415 DATAPACKING = BLOCK,  VARLOCATION = ([4]=CELLCENTERED), ZONETYPE=FETETRAHEDRON 
-5.000000e-01     
-4.218143e-01     -5.000000e-01     -5.000000e-01     -5.000000e-01     -5.000000e-01     
-4.094840e-01     -5.000000e-01     -5.000000e-01     -4.110969e-01     -4.012225e-01     
-4.055522e-01     -4.032624e-01     -4.146330e-01     -4.039991e-01     -3.980864e-01     
-5.000000e-01     -5.000000e-01     -4.149223e-01     -4.323981e-01     -3.699585e-01     
-5.000000e-01     -4.090414e-01     -3.244908e-01     -3.057680e-01     -4.203127e-01     
-3.680274e-01     -2.808388e-01     -3.985716e-01     -3.351033e-01     -3.249335e-01     
-4.459200e-01     -3.270501e-01     -3.294297e-01     -2.711591e-01     -2.682389e-01     
-3.373271e-01     -2.990160e-01     -4.012287e-01     -1.976659e-01     -2.143522e-01     
-1.941556e-01     -8.676880e-02     -1.493282e-02     1.586663e-02     -1.074120e-01     
-1.728598e-01     -3.394273e-01     -3.379306e-01     -3.257467e-01     -2.711606e-01     
-3.133363e-01     -3.205075e-01     -2.358085e-01     -3.398157e-01     -3.379727e-01     
-2.707177e-01     -1.231269e-01     -2.234484e-01     -2.368652e-01     -1.528662e-01     
-2.210977e-01     -2.594341e-01     -2.541109e-02     9.822835e-05     7.790079e-02     
-2.362282e-02     -1.372274e-01     -1.060894e-01     5.703769e-02     8.387819e-02     
2.813883e-02     5.146898e-02     -6.652962e-02     -4.713288e-02     -1.957481e-02     
-2.376792e-01     -2.391774e-01     3.490453e-02     -5.759796e-02     -2.923586e-02     
-1.985911e-01     -1.752325e-01     -2.844957e-01     -8.680247e-03     -7.420712e-02     
-2.095044e-01     -1.225027e-01     -6.584375e-02     -1.007032e-01     -9.934045e-02     
-2.703984e-01     -1.324849e-01     -1.170894e-01     -6.291875e-02     -4.579973e-02     
-1.514510e-01     -1.471830e-02     -2.668339e-01     -1.919929e-01     
-5.781284e-02     
-1.074298e-01     -1.120386e-01     -2.988429e-03     -1.524380e-01     -2.324125e-01     
-2.034846e-01     -2.256034e-01     5.069471e-02     -3.368854e-03     -1.330280e-01     
-2.712972e-01     -2.767875e-01     -2.913535e-01     -1.467599e-01     -1.729986e-02     
-6.462224e-02     5.287977e-02     3.543992e-02     5.492080e-02     -1.035602e-02     
-6.024899e-03     1.018513e-01     -2.424339e-01     5.341083e-04     -5.276190e-02     
-6.365939e-02     -9.868880e-02     -1.273472e-01     6.012513e-02     4.629024e-02     
-6.669972e-02     -2.398524e-01     -1.397059e-01     -1.962442e-01     -1.092280e-01     
-1.147359e-01     -1.382256e-02     1.111513e-01     -4.889083e-02     7.034472e-02     
9.643864e-03     -9.009057e-02     4.256697e-03     -9.070212e-02     5.526841e-02     
1.322244e-01     -3.320251e-02     1.047620e-01     7.434720e-02     -4.694584e-04     
1.318267e-01     -1.485078e-01     -2.285682e-01     -4.623874e-02     -1.007755e-01     
6.984407e-02     1.816885e-01     1.567025e-01     -1.330900e-01     -1.510331e-01     
-2.212639e-01     1.197064e-02     -2.585592e-02     6.465504e-02     8.039002e-03     
2.650584e-02     2.967240e-02     -4.147658e-03     -2.981531e-02     -8.842640e-02     
2.280225e-02     -8.234295e-02     -5.878848e-02     5.267871e-02     -1.540425e-01     
-1.870477e-01     -5.227723e-02     1.444082e-01     1.039844e-01     1.542729e-01     
-6.445561e-02     -5.581811e-03     -7.619716e-02     -9.220390e-02     7.852802e-02     
8.959515e-02     -6.285369e-02     -1.916077e-01     2.619822e-02     -2.124176e-02     
-2.478608e-01     -1.283313e-01     1.427798e-01     -3.786000e-02     -1.308397e-01     
-9.010675e-02     1.290992e-01     -8.901062e-02     -2.393590e-01     
-1.486378e-01     
-1.848963e-01     -2.427303e-01     -2.427119e-01     -1.633208e-01     -1.286301e-01     
-1.770769e-01     -2.392799e-01     -1.468052e-01     -1.793849e-01     -2.917118e-01     
-2.887011e-01     -9.746187e-02     -2.003570e-01     -9.251752e-02     -2.918028e-01     
-3.308520e-01     -3.420148e-01     7.123904e-02     -5.669591e-02     -4.206277e-02     
-4.723589e-02     -1.819551e-01     -2.269009e-01     5.383750e-02     7.028715e-02     
-1.203543e-01     -2.804394e-02     7.441303e-03     -1.156740e-01     -2.333918e-01     
-8.017357e-02     -3.274051e-01     -2.178115e-01     -1.314117e-01     -2.951861e-01     
-3.490430e-01     -3.263607e-01     -3.041262e-01     -2.167022e-01     -2.335928e-01     
-3.232020e-01     -2.447248e-01     -3.071596e-01     -2.713885e-01     -2.669173e-01     
-3.175967e-01     1.251280e-01     9.305486e-02     1.258007e-02     -3.926417e-02     
-1.823315e-01     -8.291304e-02     -3.265814e-01     -2.236478e-01     -2.781188e-01     
-3.451845e-01     -2.489276e-01     -2.495125e-01     -2.108879e-01     -1.529690e-01     
-2.361199e-01     -1.635886e-01     -2.208904e-01     -2.319624e-01     -1.699825e-01     
-1.452995e-01     -1.593557e-01     -3.342696e-01     -3.023907e-01     -1.900583e-01     
-5.066427e-02     -5.766458e-02     -2.919534e-02     2.068263e-02     3.413638e-02     
-3.878390e-02     3.325330e-02     -3.333888e-01     -3.402914e-01     -2.571945e-01     
-9.710986e-02     -3.863238e-03     -1.566228e-01     -1.422391e-01     -1.912195e-01     
-1.264903e-01     -1.624526e-01     -1.326620e-01     -5.257005e-02     5.291877e-02     
-7.374091e-02     -5.773290e-02     -1.528913e-01     -1.097965e-01     -7.355145e-02     
7.554143e-02     -1.549413e-01     -3.705798e-01     -7.622989e-02     

0      
0      0      0      0      0      0      0      0      0      0      
0      0      0      0      0      0      0      0      0      0      
0      0      0      0      0      0      0      0      0      0      
0      0      0      0      0      0      0      0      0      0      
0      0      0      0      0      0      0      0      0      0      
0      0      0      0      0      0      0      0      0      0      
0      0      0      0      0      0      0      0      0      0      
0      0      0      0      0      0      0      0      0      0      
0      0      0      0      0      0      0      0      0      0      
0      0      0      0      0      0      0      0      0      0      
0      0      0      0      0      0      0      0      0      0      
0      0      0      0      0      0      0      0      0      0      
0      0      0      0      0      0      0      0      0      0      
0      0      0      0      0      0      0      0      0      0      
0      0      0      0      0      0      0      0      0      0      
0      0      0      0      0      0      0      0      0      0      
0      0      0      0      0      0      0      0      0      0      
0      0      0      0      0      0      0      0      0      0      
0      0      0      0      0      0      0      0      0      0      
0      0      0      0      0      0      0      0      0      0      
0      0      0      0      0      0      0      0      0      0      
0      0      0      0      0      0      0      0      0      0      
0      0      0      0      0      0      0      0      0      0      
0      0      1      1      1      1      1      1      1      1      
1      1      1      1      1      1      1      1      1      1      
1      1      1      1      1      1      1      1      1      1      
1      1      1      1      1      1      1      1      1      1      
1      1      1      1      1      1      1      1      1      1      
1      1      1      1      1      1      1      1      1      1      
1      1      1      1      1      1      1      1      1      1      
1      1      1      1      1      1      1      1      1      1      
1      1      1      1      1      1      1      1      1      1      
1      1      1      1      1      1      1      1      1      1      
1      1      1      1      1      1      1      1      1      1      
1      1      1      1      1      1      1      1      1      1      
1      1      1      1      1      1      1      1      1      1      
1      1      1      1      1      1      1      1      1      1      
1      1      1      1      1      1      1      1      1      1      
1      1      1      1      1      1      1      1      1      1      
1      1      1      1      1      1      1      1      1      1      
1      1      1      1      1      1      1      1      1      1      
1      1      1      1      

1      2      3      5      
3      2      1      4      
4      3      2      16      
4      2      1      10      
1      2      5      32      
3      5      2      7      
5      8      7      3      
7      8      5      6      
5      7      6      15      
3      8      7      11      
3      7      2      11      
5      2      7      15      
9      10      1      32      
1      10      9      4      
1      10      2      32      
4      2      10      16      
2      3      11      16      
2      11      7      34      
7      11      12      24      
12      11      7      8      
8      7      12      14      
12      14      7      24      
13      15      7      53      
7      15      13      6      
7      15      2      34      
5      2      15      32      
2      10      16      55      
3      16      4      17      
17      16      4      18      
2      16      11      56      
19      20      21      50      
21      20      19      22      
22      21      20      32      
9      20      10      32      
10      20      9      23      
23      10      20      30      
11      24      7      34      
21      25      19      50      
19      25      21      26      
26      19      25      48      
27      28      21      51      
21      28      27      29      
29      27      21      32      
29      28      27      53      
27      30      10      55      
10      30      27      21      
21      10      30      20      
21      27      10      32      
21      30      27      51      
31      30      23      52      
23      30      31      10      
10      30      31      55      
21      20      30      50      
21      10      20      32      
27      32      29      15      
15      27      32      2      
15      29      27      53      
22      32      20      9      
10      32      27      2      
22      32      9      1      
2      27      10      55      
2      15      27      34      
27      34      15      53      
2      34      27      55      
15      34      7      53      
35      34      24      60      
24      34      35      7      
7      34      35      53      
11      34      2      56      
11      24      34      33      
24      34      33      36      
11      33      34      56      
36      34      33      56      
24      34      36      60      
31      38      16      55      
16      38      31      39      
39      38      31      57      
38      40      41      42      
41      40      38      31      
31      41      40      63      
31      38      41      57      
31      40      38      55      
41      38      42      57      
25      48      19      49      
49      19      25      50      
25      50      21      51      
21      50      30      51      
28      51      27      84      
21      51      28      25      
27      51      30      63      
25      51      28      78      
31      30      52      63      
34      53      27      84      
35      53      34      84      
27      53      28      84      
37      54      36      99      
36      54      37      33      
33      37      36      56      
10      55      31      16      
40      55      31      63      
38      55      40      36      
36      38      55      56      
36      55      40      60      
34      55      2      56      
27      55      34      84      
30      55      27      63      
31      55      30      63      
2      55      16      56      
16      55      38      56      
36      56      55      34      
34      55      36      60      
38      56      36      37      
37      36      38      99      
11      33      56      37      
41      58      46      94      
46      58      41      47      
47      46      58      80      
47      58      41      59      
59      58      41      94      
34      55      60      84      
40      60      55      84      
35      60      61      82      
61      60      35      62      
34      60      35      84      
61      60      40      82      
40      60      61      43      
43      61      40      88      
51      63      27      84      
30      63      51      87      
27      63      55      84      
55      63      40      84      
30      52      63      87      
40      63      41      68      
45      64      44      70      
44      64      45      43      
43      44      64      46      
43      64      45      85      
65      64      66      70      
66      64      65      67      
67      66      64      85      
67      64      65      86      
65      64      46      86      
46      64      65      44      
44      65      46      80      
44      64      65      70      
41      68      63      87      
40      63      68      82      
40      68      41      46      
46      68      41      94      
40      68      46      88      
64      70      71      66      
71      70      64      45      
45      64      71      85      
71      64      66      85      
28      78      51      82      
81      65      80      46      
80      65      81      79      
46      81      65      86      
46      80      81      58      
44      80      46      69      
44      69      46      43      
81      46      58      94      
60      82      35      84      
61      35      82      77      
35      82      77      53      
61      77      82      93      
61      35      77      100      
28      78      82      93      
28      82      51      84      
53      35      82      84      
53      77      35      92      
53      82      77      28      
28      53      82      84      
28      82      77      93      
40      82      60      84      
61      82      40      88      
40      82      68      88      
63      68      82      87      
63      82      40      84      
63      84      51      82      
51      63      82      87      
64      85      43      88      
73      85      72      95      
72      85      73      66      
66      72      85      67      
67      72      85      95      
67      85      64      95      
65      86      81      98      
46      81      86      94      
46      86      68      94      
68      86      46      64      
64      68      86      67      
64      46      68      88      
64      68      67      95      
65      67      86      98      
41      68      87      94      
68      82      87      90      
85      88      64      95      
43      64      88      46      
46      88      43      40      
64      88      68      95      
61      82      88      93      
68      88      82      95      
74      90      75      91      
75      90      74      72      
72      90      74      95      
74      90      82      95      
82      90      74      83      
83      74      82      93      
83      90      74      91      
74      83      91      97      
35      92      77      100      
82      93      74      95      
83      74      93      97      
83      93      82      78      
78      83      93      97      
88      93      82      95      
61      93      88      89      
77      93      61      100      
41      94      87      59      
88      95      85      96      
88      93      95      96      
74      95      93      96      
82      95      90      68      
68      95      90      67      
67      95      90      72      
72      95      74      73      
73      95      74      96      
85      95      73      96      
96      74      73      76      
93      96      88      89      
81      98      86      94      
61      93      89      100      
4      3       1      4      
3      5       1      3      
5      8       6      5      
3      8       5      3      
4      1       9      4      
17      3       4      17      
4      18       17      4      
9      1       22      9      
71      70       66      71      
70      71       45      70      
71      85       45      71      
66      72       73      66      
73      85       66      73      
71      66       85      71      
66      65       67      66      
66      70       65      66      
72      74       73      72      
75      74       72      75      
72      66       67      72      
98      67       65      98      
91      74       75      91      
91      97       74      91      
73      74       76      73      
28      93       78      28      
77      93       28      77      
74      96       76      74      
76      96       73      76      
96      85       73      96      
96      74       93      96      
74      97       93      74      
93      97       78      93      
89      96       93      89      
77      100       93      77      
93      100       89      93      
92      100       77      92      
6      13       15      6      
5      6       15      5      
21      19       22      21      
19      21       26      19      
21      25       26      21      
28      21       29      28      
21      28       25      21      
29      32       15      29      
21      32       29      21      
22      32       21      22      
1      32       22      1      
32      1       5      32      
15      32       5      15      
48      25       49      48      
19      48       49      19      
26      48       19      26      
25      48       26      25      
25      50       49      25      
49      50       19      49      
13      53       15      13      
53      29       15      53      
53      28       29      53      
28      78       25      28      
83      97       91      83      
97      83       78      97      
51      50       25      51      
30      50       51      30      
25      78       51      25      
65      79       81      65      
79      80       81      79      
80      58       81      80      
78      82       51      78      
83      82       78      83      
67      86       68      67      
30      87       52      30      
82      87       51      82      
67      68       90      67      
67      90       72      67      
90      75       72      90      
90      82       83      90      
87      90       68      87      
83      91       90      83      
90      91       75      90      
81      58       94      81      
68      94       87      68      
59      94       58      59      
81      98       65      81      
86      98       94      86      
94      98       81      94      
67      98       86      67      
86      94       68      86      
30      51       87      30      
59      87       94      59      
90      87       82      90      
19      20       22      19      
9      20       23      9      
9      22       20      9      
20      30       23      20      
50      30       20      50      
30      52       23      30      
19      50       20      19      
9      10       4      9      
10      16       4      10      
16      18       4      16      
10      9       23      10      
23      31       10      23      
38      16       39      38      
16      31       39      16      
47      46       41      47      
23      52       31      23      
10      31       16      10      
39      31       57      39      
57      38       39      57      
31      41       57      31      
42      57       41      42      
41      59       47      41      
59      58       47      59      
52      63       31      52      
31      63       41      31      
58      80       47      58      
47      80       46      47      
52      87       63      52      
41      63       87      41      
41      87       59      41      
42      40       38      42      
40      42       41      40      
43      44       45      43      
41      46       40      41      
38      40       36      38      
38      57       42      38      
40      60       36      40      
62      60       61      62      
60      62       35      60      
62      61       35      62      
24      60       35      24      
61      60       43      61      
60      40       43      60      
43      69       44      43      
46      69       43      46      
40      46       43      40      
45      44       70      45      
65      70       44      65      
28      53       77      28      
65      80       79      65      
44      80       65      44      
46      80       69      46      
69      80       44      69      
85      43       45      85      
85      88       43      85      
61      43       88      61      
61      88       89      61      
53      92       77      53      
35      92       53      35      
88      96       89      88      
85      96       88      85      
36      60       24      36      
36      99       38      36      
36      54       99      36      
61      89       100      61      
100      35       61      100      
35      100       92      35      
8      11       12      8      
3      11       8      3      
16      3       17      16      
3      16       11      3      
18      16       17      18      
11      24       12      11      
11      33       24      11      
11      37       33      11      
37      54       33      37      
11      56       37      11      
16      56       11      16      
37      56       38      37      
16      38       56      16      
38      99       37      38      
99      54       37      99      
8      7       6      8      
6      7       13      6      
8      14       7      8      
12      14       8      12      
14      24       7      14      
24      14       12      24      
24      35       7      24      
33      36       24      33      
53      7       35      53      
53      13       7      53      
54      36       33      54      
