title = " tecplot file for process Mesh " 
variables = "x",  "y", "z", "cell_type" 
zone N = 95 E = 403 DATAPACKING = BLOCK,  VARLOCATION = ([4]=CELLCENTERED), ZONETYPE=FETETRAHEDRON 
5.000000e-01     
5.000000e-01     4.230521e-01     5.000000e-01     5.000000e-01     4.160512e-01     
5.000000e-01     5.000000e-01     4.196692e-01     5.000000e-01     5.000000e-01     
4.187492e-01     5.000000e-01     4.179799e-01     5.000000e-01     4.057252e-01     
5.000000e-01     4.167851e-01     4.073562e-01     4.206741e-01     4.101700e-01     
5.000000e-01     4.127808e-01     4.088398e-01     4.044243e-01     2.777140e-01     
3.087477e-01     1.986779e-01     3.245082e-01     3.855291e-01     3.524303e-01     
2.583683e-01     3.469242e-01     2.445006e-01     3.216928e-01     3.348320e-01     
2.706521e-01     4.224965e-01     3.203314e-01     3.150052e-01     3.228332e-01     
3.379978e-01     2.312966e-01     1.260943e-01     1.294959e-01     2.004760e-01     
1.723560e-01     3.412021e-01     2.520400e-01     2.188093e-01     2.964894e-01     
3.600535e-01     3.328683e-01     2.553297e-01     3.409599e-01     4.014865e-01     
3.339947e-01     2.496232e-01     3.374313e-01     3.031765e-01     2.624738e-01     
2.789008e-01     1.972600e-01     1.088349e-01     1.570651e-01     2.742418e-01     
7.790079e-02     1.364820e-01     8.387819e-02     1.696001e-01     7.905179e-02     
2.813883e-02     5.146898e-02     1.498652e-01     1.158583e-01     2.110073e-01     
1.447527e-01     2.905901e-02     1.559192e-01     2.590701e-01     2.333877e-01     
1.573082e-01     2.407601e-01     1.414686e-01     2.364907e-01     2.306298e-01     
1.504191e-01     2.533067e-01     -8.680247e-03     2.622141e-02     1.131434e-01     
9.027723e-02     2.118781e-01     1.930056e-01     2.626539e-01     
-3.393881e-01     
-2.533145e-01     -2.872865e-01     -3.333612e-01     -1.636444e-01     -1.911011e-01     
-2.461408e-01     -1.635182e-01     -3.890695e-01     -3.278680e-01     -8.318273e-02     
-5.134342e-02     -6.639593e-02     -3.024566e-01     -2.314059e-01     -1.703471e-01     
-1.159911e-01     -3.862956e-01     -2.970397e-01     -1.948771e-01     -1.171414e-01     
-1.785461e-01     -1.469433e-01     -6.195581e-02     -8.069215e-02     -4.132821e-01     
-3.892964e-01     -4.039836e-01     -3.075439e-01     -2.228784e-01     -4.389718e-01     
-4.084011e-01     -3.638362e-01     -3.394432e-01     -2.457445e-01     -1.229664e-01     
-3.283915e-02     -9.524623e-02     -4.705125e-02     -5.510661e-02     -1.070667e-01     
-3.175963e-01     -2.843860e-01     -2.963745e-01     2.548939e-02     -2.639549e-02     
-9.142106e-03     -2.154933e-01     4.633019e-02     -3.705678e-02     -1.408985e-01     
-2.042335e-01     -1.236659e-01     -2.281132e-01     -5.901176e-02     -3.556295e-02     
-2.938918e-01     -2.917544e-01     -1.634167e-01     -1.926404e-01     -1.215376e-01     
-3.525105e-01     -3.455042e-01     -3.193928e-01     -2.831383e-01     -1.160611e-01     
8.039002e-03     -6.029281e-02     -8.842640e-02     -2.359027e-01     -2.734712e-01     
2.280225e-02     -8.234295e-02     -8.010773e-02     -1.516871e-01     -1.631262e-01     
-9.261482e-02     -4.029087e-02     -2.267822e-01     -2.300906e-01     -8.348887e-02     
-2.976567e-03     4.260397e-03     1.021592e-01     -1.328112e-01     -2.381574e-01     
-1.863629e-01     -1.102908e-01     -9.220390e-02     -1.703304e-01     -1.554318e-01     
-2.192406e-02     -1.397422e-01     6.330788e-02     -7.572686e-02     
-4.423402e-04     
-3.881931e-02     1.420023e-03     -9.511343e-02     -1.650022e-01     -1.250842e-01     
-1.357217e-01     -7.452855e-02     -9.749084e-02     -1.941307e-01     -1.924155e-02     
-6.902415e-02     -1.328559e-01     -1.416553e-01     -2.409571e-01     -2.145326e-01     
-2.376384e-01     -1.961236e-01     -2.429433e-01     -2.819864e-02     2.897882e-02     
3.562174e-02     -3.047901e-01     -2.659889e-01     -1.657397e-01     -2.743597e-01     
-1.704207e-01     -1.671589e-01     -6.537041e-02     -2.781716e-01     -1.158871e-01     
-5.940573e-02     -2.470647e-01     -2.221125e-01     -1.798691e-01     -8.873213e-02     
-1.065757e-01     1.205610e-01     5.612593e-02     1.728620e-01     -2.262354e-01     
-1.450895e-01     -1.245410e-01     -1.634586e-01     -8.765528e-02     -2.407255e-02     
-1.929470e-01     -7.383668e-02     3.777487e-02     1.109510e-01     9.874390e-03     
6.872372e-02     1.101786e-01     5.693221e-02     -2.858808e-02     4.232569e-02     
2.800556e-02     -1.147283e-02     -1.638307e-01     -2.520787e-01     -3.286317e-01     
-1.090523e-01     -7.050786e-02     -8.298573e-02     -2.246243e-02     2.222330e-01     
-1.699825e-01     -2.511621e-01     -1.900583e-01     7.882730e-02     3.849417e-03     
-5.066427e-02     -5.766458e-02     -1.039839e-01     -3.152298e-02     -5.282582e-02     
4.137124e-02     5.922692e-02     -1.020221e-01     -6.724497e-02     3.612803e-02     
5.281515e-02     1.972103e-01     -1.128492e-02     -2.373910e-01     -2.083476e-01     
-2.016649e-01     1.392663e-01     -1.422391e-01     -4.453414e-02     -1.288893e-01     
-3.802190e-03     -1.453962e-01     1.082801e-01     -3.868051e-02     

0      
0      0      0      0      0      0      0      0      0      0      
0      0      0      0      0      0      0      0      0      0      
0      0      0      0      0      0      0      0      0      0      
0      0      0      0      0      0      0      0      0      0      
0      0      0      0      0      0      0      0      0      0      
0      0      0      0      0      0      0      0      0      0      
0      0      0      0      0      0      0      0      0      0      
0      0      0      0      0      0      0      0      0      0      
0      0      0      0      0      0      0      0      0      0      
0      0      0      0      0      0      0      0      0      0      
0      0      0      0      0      0      0      0      0      0      
0      0      0      0      0      0      0      0      0      0      
0      0      0      0      0      0      0      0      0      0      
0      0      0      0      0      0      0      0      0      0      
0      0      0      0      0      0      0      0      0      0      
0      0      0      0      0      0      0      0      0      0      
0      0      0      0      0      0      0      0      0      0      
0      0      0      0      0      0      0      0      0      0      
0      0      0      0      0      0      0      0      0      0      
0      0      0      0      0      0      0      0      0      0      
0      0      0      0      0      0      0      0      0      0      
0      0      0      0      0      0      0      0      0      0      
0      0      0      0      0      0      0      0      0      0      
0      0      1      1      1      1      1      1      1      1      
1      1      1      1      1      1      1      1      1      1      
1      1      1      1      1      1      1      1      1      1      
1      1      1      1      1      1      1      1      1      1      
1      1      1      1      1      1      1      1      1      1      
1      1      1      1      1      1      1      1      1      1      
1      1      1      1      1      1      1      1      1      1      
1      1      1      1      1      1      1      1      1      1      
1      1      1      1      1      1      1      1      1      1      
1      1      1      1      1      1      1      1      1      1      
1      1      1      1      1      1      1      1      1      1      
1      1      1      1      1      1      1      1      1      1      
1      1      1      1      1      1      1      1      1      1      
1      1      1      1      1      1      1      1      1      1      
1      1      1      1      1      1      1      1      1      1      
1      1      1      1      1      1      1      1      1      1      
1      1      1      1      1      1      1      1      1      1      
1      1      

2      3      4      14      
4      3      2      1      
1      4      3      9      
5      6      7      16      
7      6      5      8      
8      7      6      2      
8      6      5      25      
2      7      6      14      
2      6      8      20      
3      9      4      14      
8      13      12      25      
12      13      8      11      
8      12      11      20      
9      14      3      29      
4      14      9      10      
7      14      10      15      
10      14      7      4      
4      14      7      2      
10      14      9      18      
6      14      7      16      
2      14      6      20      
3      14      2      20      
7      14      15      16      
5      16      17      25      
17      16      5      15      
15      17      16      23      
15      16      5      7      
14      16      6      35      
15      16      14      19      
6      16      5      25      
14      18      10      19      
9      18      14      42      
18      19      14      42      
14      19      16      35      
15      16      19      30      
12      20      6      36      
6      20      12      8      
8      12      6      25      
11      20      12      21      
8      20      11      22      
21      20      12      36      
22      8      20      2      
3      14      20      48      
6      20      14      48      
16      23      24      41      
24      23      16      17      
17      16      24      25      
15      23      16      30      
24      25      16      41      
25      17      5      13      
5      25      13      8      
6      16      25      59      
6      25      12      36      
3      29      14      48      
9      14      29      42      
16      30      23      60      
28      34      27      62      
27      34      28      26      
14      19      35      42      
6      14      35      48      
6      35      16      59      
12      36      25      37      
6      25      36      59      
37      36      25      59      
12      36      37      55      
21      20      36      51      
21      36      12      55      
6      36      20      48      
23      41      16      60      
16      41      25      59      
34      42      27      62      
27      42      34      33      
33      27      42      18      
33      42      34      35      
33      42      35      19      
34      35      42      43      
33      42      19      18      
14      42      35      29      
27      42      18      31      
9      18      42      31      
9      42      29      31      
31      42      29      62      
34      43      42      62      
35      42      43      29      
35      43      34      86      
29      42      43      62      
29      43      35      80      
20      48      36      51      
6      36      48      59      
3      48      20      57      
14      48      29      35      
3      29      48      57      
6      48      35      59      
21      51      36      55      
36      51      48      80      
20      48      51      57      
51      53      54      81      
54      53      51      52      
52      51      54      57      
39      53      51      81      
51      53      39      21      
21      39      51      55      
21      53      39      38      
38      53      39      40      
40      53      39      88      
36      55      51      95      
51      55      39      95      
37      55      36      95      
54      57      51      80      
48      57      29      80      
41      59      16      60      
25      59      41      37      
36      48      59      80      
35      59      48      80      
16      59      35      60      
41      60      23      61      
59      60      41      85      
35      60      59      86      
60      61      41      85      
29      62      43      58      
29      58      43      80      
27      62      42      31      
34      43      62      28      
31      27      62      32      
29      31      62      32      
65      43      58      80      
58      43      65      63      
65      63      43      79      
45      73      72      92      
72      73      45      67      
45      67      73      74      
47      74      37      93      
37      74      47      45      
45      37      74      46      
45      74      47      67      
37      74      46      95      
45      46      74      92      
67      74      47      68      
73      74      67      69      
45      74      73      92      
69      73      74      91      
69      67      73      89      
69      74      67      68      
70      75      76      77      
76      75      70      65      
65      76      75      79      
65      70      76      58      
77      76      70      81      
77      75      76      74      
65      79      75      71      
76      75      79      91      
76      79      65      80      
79      71      65      64      
65      79      64      63      
71      79      75      90      
64      63      79      44      
43      79      63      44      
65      79      43      80      
36      80      59      93      
51      80      36      76      
48      80      51      57      
51      80      76      54      
36      76      80      93      
36      51      76      95      
59      80      35      93      
48      35      80      29      
35      80      43      93      
65      80      58      76      
43      80      79      93      
58      76      80      54      
76      79      80      93      
54      58      76      70      
54      80      58      57      
76      51      54      81      
58      57      80      29      
39      53      81      88      
39      81      51      95      
81      54      76      70      
77      76      81      46      
76      51      81      95      
76      81      46      95      
77      46      81      82      
77      76      46      74      
50      81      49      82      
49      81      50      39      
39      49      81      95      
39      81      50      88      
82      81      49      46      
46      49      82      84      
46      81      49      95      
49      50      82      94      
46      82      77      92      
82      84      49      94      
46      84      82      92      
60      85      59      86      
41      59      85      37      
59      35      86      93      
59      86      85      93      
79      86      43      93      
43      86      79      44      
44      43      86      34      
44      86      79      87      
87      86      79      93      
35      43      86      93      
40      83      88      50      
88      83      40      66      
40      88      66      53      
40      50      88      39      
53      81      88      54      
69      89      73      91      
75      90      79      91      
75      91      74      73      
74      91      75      76      
76      74      91      93      
76      91      79      93      
74      75      73      92      
69      91      74      93      
46      92      77      74      
46      92      45      84      
77      74      92      75      
73      92      75      78      
37      93      74      95      
47      74      93      68      
47      93      37      85      
85      93      37      59      
74      93      68      69      
79      87      93      91      
36      76      93      95      
36      93      59      37      
37      36      93      95      
76      74      93      95      
21      38      39      56      
46      74      76      95      
1      4       2      1      
8      7       5      8      
2      7       8      2      
8      13       11      8      
4      10       7      4      
4      7       2      4      
7      10       15      7      
15      17       5      15      
15      5       7      15      
22      8       11      22      
22      2       8      22      
5      17       13      5      
5      13       8      5      
21      20       11      21      
11      20       22      11      
21      51       20      21      
52      53       54      52      
51      53       52      51      
21      53       51      21      
21      38       53      21      
40      53       38      40      
21      56       38      21      
52      54       57      52      
40      66       53      40      
66      88       53      66      
53      88       54      53      
65      75       71      65      
70      75       65      70      
77      75       70      77      
54      81       70      54      
77      70       81      77      
82      81       50      82      
77      81       82      77      
40      83       66      40      
83      88       66      83      
50      88       83      50      
54      88       81      54      
81      88       50      81      
75      90       71      75      
82      92       77      82      
92      75       77      92      
82      84       92      82      
75      92       78      75      
82      94       84      82      
38      39       40      38      
39      49       50      39      
40      39       50      40      
38      56       39      38      
50      83       40      50      
49      94       50      49      
50      94       82      50      
10      14       15      10      
19      14       10      19      
18      19       10      18      
15      14       19      15      
15      23       17      15      
19      30       15      19      
30      19       16      30      
15      30       23      15      
18      33       19      18      
27      26       34      27      
27      34       33      27      
16      19       35      16      
19      33       35      19      
34      35       33      34      
33      18       27      33      
23      30       60      23      
60      30       16      60      
16      35       60      16      
60      61       23      60      
60      85       61      60      
35      86       60      35      
60      86       85      60      
34      86       35      34      
31      27       18      31      
69      67       68      69      
86      44       87      86      
44      79       87      44      
34      44       86      34      
91      89       69      91      
85      93       47      85      
93      68       47      93      
86      93       85      86      
87      93       86      87      
91      93       87      91      
91      87       79      91      
69      68       93      69      
69      93       91      69      
1      2       3      1      
1      3       9      1      
4      9       10      4      
1      9       4      1      
18      10       9      18      
20      2       22      20      
2      20       3      2      
26      27       28      26      
3      29       9      3      
9      31       18      9      
9      29       31      9      
32      27       31      32      
26      28       34      26      
34      43       44      34      
28      43       34      28      
29      57       58      29      
3      57       29      3      
57      51       52      57      
3      20       57      3      
58      62       29      58      
32      29       62      32      
43      62       58      43      
27      62       28      27      
62      43       28      62      
32      62       27      32      
44      43       63      44      
44      63       64      44      
64      63       65      64      
58      63       43      58      
63      58       65      63      
65      58       70      65      
54      70       58      54      
65      71       64      65      
57      54       58      57      
57      20       51      57      
32      31       29      32      
13      12       11      13      
12      21       11      12      
23      24       17      23      
12      13       25      12      
17      25       13      17      
17      24       25      17      
25      37       12      25      
23      41       24      23      
24      41       25      24      
55      39       21      55      
12      55       21      12      
55      12       37      55      
21      39       56      21      
23      61       41      23      
46      84       49      46      
61      85       41      61      
41      85       37      41      
37      85       47      37      
37      25       41      37      
55      95       39      55      
49      95       46      49      
39      95       49      39      
46      95       37      46      
37      95       55      37      
45      46       37      45      
45      37       47      45      
47      67       45      47      
47      68       67      47      
67      72       45      67      
46      45       84      46      
78      92       73      78      
72      73       92      72      
72      92       45      72      
45      92       84      45      
84      94       49      84      
73      75       78      73      
64      71       79      64      
44      64       79      44      
71      90       79      71      
79      90       91      79      
91      90       75      91      
73      91       75      73      
89      91       73      89      
73      72       67      73      
67      89       73      67      
89      67       69      89      
