title = " tecplot file for process Mesh " 
variables = "x",  "y", "z", "cell_type" 
zone N = 103 E = 427 DATAPACKING = BLOCK,  VARLOCATION = ([4]=CELLCENTERED), ZONETYPE=FETETRAHEDRON 
-5.000000e-01     
-5.000000e-01     -4.166611e-01     -5.000000e-01     -5.000000e-01     -5.000000e-01     
-4.156823e-01     -5.000000e-01     -4.133186e-01     -5.000000e-01     -5.000000e-01     
-4.153430e-01     -2.440145e-01     -2.785733e-01     -3.335166e-01     -2.581887e-01     
-2.420311e-01     -2.777619e-01     -3.330660e-01     -3.276804e-01     -1.544193e-01     
-3.610812e-01     -3.586965e-01     -3.590371e-01     -2.973002e-01     -3.838672e-01     
-3.243758e-01     -3.299054e-01     -4.139072e-01     -5.000000e-01     -5.000000e-01     
-7.705043e-02     -1.286284e-01     -1.544154e-01     -5.000000e-01     -4.046798e-01     
-5.000000e-01     -5.000000e-01     -4.051338e-01     -5.000000e-01     -5.000000e-01     
-4.149223e-01     -5.000000e-01     -4.090414e-01     -5.000000e-01     -5.000000e-01     
-5.000000e-01     -4.129813e-01     -5.000000e-01     -4.093138e-01     -5.000000e-01     
-5.000000e-01     -4.004549e-01     -5.000000e-01     -5.000000e-01     -4.146932e-01     
-4.151901e-01     -1.753473e-01     -8.249390e-02     -3.011868e-02     -4.048229e-01     
-3.882388e-01     -4.099830e-01     -2.885194e-01     -4.107858e-01     -4.123832e-01     
-4.199913e-01     -4.309317e-01     -9.392369e-02     -1.508407e-01     -3.379306e-01     
-4.323981e-01     -5.000000e-01     -2.117630e-01     -3.108277e-01     -2.504506e-01     
-2.398445e-01     -3.285452e-01     -8.326735e-02     -4.116511e-02     -3.142911e-01     
-3.351033e-01     -3.190908e-01     -1.260565e-01     -2.737528e-01     -3.211086e-01     
-2.507131e-01     -1.717705e-01     -8.172463e-03     -3.257467e-01     -1.918203e-01     
-2.204938e-01     -2.873063e-01     -3.133363e-01     -3.315409e-01     -3.408194e-01     
-2.688934e-01     -1.983751e-01     -2.328602e-01     -9.724456e-02     -2.392632e-01     
-1.143022e-01     -2.597987e-01     
4.312377e-01     
5.000000e-01     5.000000e-01     4.147818e-01     5.000000e-01     4.153630e-01     
5.000000e-01     5.000000e-01     5.000000e-01     4.105989e-01     5.000000e-01     
5.000000e-01     5.000000e-01     4.213929e-01     5.000000e-01     5.000000e-01     
5.000000e-01     4.204167e-01     5.000000e-01     5.000000e-01     5.000000e-01     
4.217566e-01     4.200801e-01     4.191515e-01     4.178582e-01     4.184441e-01     
5.000000e-01     5.000000e-01     5.000000e-01     4.102224e-01     3.190682e-01     
5.000000e-01     4.004149e-01     5.000000e-01     3.265156e-01     2.782176e-01     
2.253119e-01     6.228643e-02     1.096455e-01     1.225622e-01     1.440880e-01     
3.543992e-02     1.472925e-01     1.018513e-01     5.069471e-02     1.075666e-01     
2.279456e-01     2.001833e-01     2.320153e-01     2.609036e-01     3.227500e-01     
2.381404e-01     2.998565e-01     3.369641e-01     3.244648e-01     3.650961e-01     
4.189232e-01     3.995669e-01     4.029161e-01     4.102142e-01     1.368977e-01     
3.096416e-01     3.438501e-01     3.111055e-01     2.044487e-01     1.782931e-01     
1.885479e-01     3.814265e-01     4.335922e-01     2.813972e-01     1.047620e-01     
5.492080e-02     -6.024899e-03     3.391044e-01     3.339733e-01     3.899031e-01     
5.000000e-01     2.760969e-01     2.713148e-01     2.975135e-01     1.924633e-01     
6.012513e-02     1.960923e-01     3.102992e-01     3.376574e-01     3.307454e-01     
2.747366e-01     3.008064e-01     3.690869e-01     7.434720e-02     1.996415e-01     
2.618667e-01     1.837134e-01     1.318267e-01     2.397362e-01     3.508811e-01     
2.717184e-01     1.916719e-01     1.794806e-01     2.073334e-01     2.237190e-01     
1.904391e-01     2.875741e-01     
5.178556e-02     
0.000000e+00     5.054534e-02     -3.296074e-02     1.000000e-01     1.377013e-01     
1.486201e-01     -1.000000e-01     -1.461086e-01     -1.337883e-01     -2.000000e-01     
-4.747242e-02     1.336584e-01     9.443247e-02     9.819020e-02     5.144882e-02     
-3.069292e-02     8.296501e-03     4.133603e-03     -9.101599e-02     5.210656e-02     
5.095638e-02     -4.478493e-02     1.470897e-01     -1.380406e-01     -1.942987e-01     
-1.915644e-01     -2.923435e-01     -2.452230e-01     -2.344304e-01     -1.710999e-01     
-2.779790e-02     -1.518372e-02     -6.985983e-02     -2.610949e-01     -2.736084e-01     
-2.290687e-01     2.751135e-02     1.139045e-02     -5.375772e-02     6.041773e-02     
7.123904e-02     -1.564646e-01     -1.819551e-01     -1.468052e-01     -2.425956e-01     
-1.117702e-01     -1.657678e-01     -7.773377e-04     -5.895842e-02     -6.432774e-02     
1.120820e-01     1.138530e-01     5.410100e-02     1.753759e-01     2.126462e-01     
-1.121461e-01     8.044220e-02     -1.073510e-01     -6.092249e-03     -8.658382e-02     
-1.671312e-01     3.187424e-03     -6.285127e-02     1.765416e-02     1.091536e-01     
-2.571999e-01     9.096564e-02     6.129500e-02     -8.719599e-02     9.305486e-02     
-5.669591e-02     -4.723589e-02     2.885639e-03     -1.416691e-01     -6.931173e-02     
-1.315413e-01     3.372893e-02     6.506231e-02     -4.334588e-02     1.499436e-01     
-1.156740e-01     -4.586274e-02     -4.823775e-03     6.608203e-02     1.606223e-01     
1.239505e-01     7.929981e-02     -7.891721e-02     1.258007e-02     1.703506e-02     
-3.766535e-02     5.126215e-02     -1.823315e-01     -1.314071e-01     3.336094e-02     
-1.714648e-01     1.150726e-01     -8.880661e-02     -3.198280e-02     1.890903e-01     
8.572555e-02     1.660503e-02     

0      
0      0      0      0      0      0      0      0      0      0      
0      0      0      0      0      0      0      0      0      0      
0      0      0      0      0      0      0      0      0      0      
0      0      0      0      0      0      0      0      0      0      
0      0      0      0      0      0      0      0      0      0      
0      0      0      0      0      0      0      0      0      0      
0      0      0      0      0      0      0      0      0      0      
0      0      0      0      0      0      0      0      0      0      
0      0      0      0      0      0      0      0      0      0      
0      0      0      0      0      0      0      0      0      0      
0      0      0      0      0      0      0      0      0      0      
0      0      0      0      0      0      0      0      0      0      
0      0      0      0      0      0      0      0      0      0      
0      0      0      0      0      0      0      0      0      0      
0      0      0      0      0      0      0      0      0      0      
0      0      0      0      0      0      0      0      0      0      
0      0      0      0      0      0      0      0      0      0      
0      0      0      0      0      0      0      0      0      0      
0      0      0      0      0      0      0      0      0      0      
0      0      0      0      0      0      0      0      0      0      
0      0      0      0      0      0      0      0      0      0      
0      0      0      0      0      0      0      0      0      0      
0      0      0      0      0      0      0      0      0      0      
0      0      1      1      1      1      1      1      1      1      
1      1      1      1      1      1      1      1      1      1      
1      1      1      1      1      1      1      1      1      1      
1      1      1      1      1      1      1      1      1      1      
1      1      1      1      1      1      1      1      1      1      
1      1      1      1      1      1      1      1      1      1      
1      1      1      1      1      1      1      1      1      1      
1      1      1      1      1      1      1      1      1      1      
1      1      1      1      1      1      1      1      1      1      
1      1      1      1      1      1      1      1      1      1      
1      1      1      1      1      1      1      1      1      1      
1      1      1      1      1      1      1      1      1      1      
1      1      1      1      1      1      1      1      1      1      
1      1      1      1      1      1      1      1      1      1      
1      1      1      1      1      1      1      1      1      1      
1      1      1      1      1      1      1      1      1      1      
1      1      1      1      1      1      1      1      1      1      
1      1      1      1      1      1      1      1      1      1      
1      1      1      1      1      1      1      1      1      1      
1      1      1      1      1      1      

1      2      3      5      
3      2      1      4      
4      3      2      12      
4      1      3      22      
1      5      3      68      
8      9      10      57      
10      9      8      11      
11      10      9      26      
4      12      2      8      
3      12      4      22      
8      4      12      57      
16      15      14      22      
14      15      16      13      
17      18      19      16      
19      18      17      20      
20      19      18      23      
20      18      17      76      
16      18      19      22      
17      18      16      21      
17      18      21      33      
4      22      12      23      
3      12      22      19      
12      22      19      23      
3      19      22      15      
3      22      1      68      
4      1      22      63      
15      22      7      24      
7      22      15      3      
3      7      22      68      
19      22      15      16      
14      22      15      24      
16      22      14      18      
14      18      22      96      
19      22      18      23      
20      19      23      12      
20      23      18      76      
18      23      22      96      
20      12      23      57      
4      22      23      63      
4      23      12      57      
7      24      22      68      
22      24      14      96      
29      27      26      9      
26      27      29      28      
29      9      26      11      
9      26      10      57      
11      10      26      30      
10      26      30      31      
31      26      30      35      
10      26      31      57      
32      33      21      69      
21      33      32      34      
34      21      33      17      
17      33      34      76      
18      33      17      76      
21      33      18      58      
38      39      40      72      
40      39      38      41      
43      44      45      61      
45      44      43      46      
46      44      43      67      
47      48      43      61      
43      48      47      37      
37      43      48      67      
37      48      47      62      
49      50      47      61      
47      50      49      51      
51      47      50      62      
51      50      49      63      
49      53      54      63      
54      53      49      52      
52      53      49      65      
26      57      9      25      
26      57      25      75      
9      25      57      20      
10      57      31      51      
51      10      57      4      
51      57      31      62      
31      57      26      62      
25      57      23      75      
23      57      25      20      
20      25      23      76      
9      20      57      12      
9      12      57      8      
4      10      57      8      
4      57      51      63      
4      23      57      63      
18      58      33      74      
21      33      58      69      
60      59      33      84      
33      59      60      32      
32      60      33      69      
47      61      50      48      
48      50      47      62      
48      61      50      95      
40      61      47      43      
47      61      40      49      
49      61      40      65      
50      61      49      65      
40      61      43      45      
43      61      48      44      
44      48      43      67      
44      61      48      94      
40      61      45      72      
45      61      44      72      
26      31      62      35      
26      62      57      75      
57      62      51      50      
31      51      62      47      
51      57      50      63      
51      63      54      4      
54      63      51      49      
49      63      50      65      
50      63      57      23      
23      50      63      64      
23      57      50      75      
4      63      54      1      
50      63      64      78      
23      64      63      96      
23      50      64      75      
22      23      63      96      
54      1      63      68      
22      63      1      68      
61      65      50      83      
40      65      61      39      
39      61      40      72      
39      65      61      83      
63      65      49      53      
50      65      63      78      
43      46      67      37      
44      48      67      94      
54      68      63      53      
53      54      68      55      
53      68      63      96      
54      1      68      6      
63      68      22      96      
22      68      24      96      
3      7      68      5      
5      68      1      6      
6      5      68      7      
7      68      6      56      
54      68      55      6      
33      58      69      84      
33      69      60      84      
39      72      42      90      
42      72      39      38      
38      42      72      73      
73      72      40      45      
40      72      73      38      
44      72      61      82      
39      61      72      90      
33      74      58      84      
18      58      74      85      
18      74      33      76      
64      75      50      95      
23      75      64      76      
25      75      23      76      
18      76      64      74      
64      76      18      23      
23      18      64      96      
20      76      17      77      
77      76      17      34      
74      76      64      70      
18      74      64      103      
33      76      74      70      
64      78      63      96      
50      78      64      83      
65      78      50      83      
63      78      65      53      
53      78      65      66      
66      53      78      81      
66      78      65      93      
63      78      53      96      
78      81      53      86      
66      81      78      93      
61      82      72      90      
44      82      61      94      
64      50      83      95      
64      83      78      103      
65      78      83      93      
65      83      39      93      
61      39      83      90      
50      61      83      95      
74      84      33      70      
70      84      33      59      
80      84      79      100      
79      84      80      60      
60      84      80      59      
70      84      59      80      
70      84      80      100      
18      85      74      103      
78      87      85      103      
85      87      78      86      
78      86      87      81      
78      85      86      96      
83      90      39      93      
78      93      81      87      
87      78      93      103      
87      93      81      98      
39      93      90      71      
71      39      93      66      
39      65      93      66      
78      83      93      103      
48      94      61      95      
92      95      83      99      
83      95      92      64      
64      92      83      103      
61      95      94      83      
83      95      94      99      
64      75      95      97      
53      96      78      86      
64      78      96      103      
64      96      18      103      
91      98      88      102      
88      98      91      87      
87      91      88      103      
87      98      91      93      
87      98      81      101      
87      93      91      103      
83      92      99      93      
31      47      62      37      
37      62      31      35      
35      37      62      36      
85      96      78      103      
80      60      59      89      
92      99      93      91      
91      93      92      103      
92      93      83      103      
87      85      103      88      
18      103      96      85      
74      103      85      88      
74      103      88      92      
92      103      88      91      
1      2       4      1      
1      5       2      1      
11      10       8      11      
8      4       2      8      
11      30       10      11      
10      30       31      10      
41      40       38      41      
46      45       43      46      
37      43       47      37      
51      47       49      51      
52      54       49      52      
51      10       31      51      
4      10       51      4      
8      10       4      8      
49      47       40      49      
47      43       40      47      
40      43       45      40      
49      54       51      49      
4      51       54      4      
54      1       4      54      
37      46       43      37      
6      5       1      6      
6      54       55      6      
6      1       54      6      
38      40       73      38      
45      73       40      45      
47      31       37      47      
31      35       37      31      
31      30       35      31      
51      31       47      51      
5      3       2      5      
9      11       8      9      
2      3       12      2      
12      8       2      12      
16      15       13      16      
20      19       17      20      
17      19       16      17      
17      16       21      17      
3      19       12      3      
3      7       15      3      
3      15       19      3      
19      15       16      19      
20      12       19      20      
29      27       28      29      
29      9       27      29      
29      11       9      29      
34      21       32      34      
17      21       34      17      
9      12       20      9      
9      8       12      9      
5      7       3      5      
77      20       17      77      
77      17       34      77      
60      59       32      60      
60      79       80      60      
60      89       59      60      
80      59       89      80      
60      80       89      60      
38      39       41      38      
42      39       38      42      
39      71       66      39      
39      42       90      39      
39      90       71      39      
90      93       71      90      
93      81       66      93      
71      93       66      71      
38      73       42      38      
6      7       5      6      
15      14       13      15      
13      14       16      13      
16      18       21      16      
18      16       14      18      
24      15       7      24      
24      14       15      24      
52      53       54      52      
55      54       53      55      
6      56       7      6      
18      58       21      18      
55      53       68      55      
6      68       56      6      
55      68       6      55      
7      68       24      7      
58      69       21      58      
32      69       60      32      
32      21       69      32      
79      60       84      79      
69      84       60      69      
74      84       58      74      
18      85       58      18      
85      74       58      85      
87      85       86      87      
74      85       88      74      
24      96       14      24      
85      96       86      85      
86      96       53      86      
68      96       24      68      
53      96       68      53      
96      18       14      96      
18      96       85      18      
56      68       7      56      
84      69       58      84      
87      88       85      87      
39      40       41      39      
65      49       40      65      
65      40       39      65      
52      65       53      52      
66      53       65      66      
65      52       49      65      
66      65       39      66      
81      53       66      81      
81      87       86      81      
98      88       87      98      
93      98       81      93      
81      101       87      81      
87      101       98      87      
98      101       81      98      
98      102       88      98      
86      53       81      86      
32      33       34      32      
32      59       33      32      
33      59       70      33      
76      25       20      76      
76      20       77      76      
64      76       70      64      
33      76       34      33      
84      74       70      84      
80      70       59      80      
90      82       61      90      
83      90       61      83      
91      92       88      91      
88      92       74      88      
83      93       90      83      
61      94       83      61      
82      94       61      82      
92      95       64      92      
95      97       64      95      
91      98       93      91      
95      92       99      95      
94      99       83      94      
83      99       93      83      
70      100       84      70      
80      100       70      80      
100      80       79      100      
84      100       79      84      
91      102       98      91      
88      102       91      88      
91      99       92      91      
70      76       33      70      
76      77       34      76      
64      70       74      64      
93      99       91      93      
92      103       74      92      
64      74       103      64      
64      103       92      64      
9      20       25      9      
25      26       9      25      
27      9       26      27      
27      26       28      27      
28      26       29      28      
26      11       29      26      
11      26       30      11      
30      26       35      30      
75      26       25      75      
76      75       25      76      
75      76       64      75      
64      97       75      64      
35      36       37      35      
44      45       46      44      
37      62       48      37      
36      62       37      36      
35      26       62      35      
35      62       36      35      
50      62       57      50      
62      50       48      62      
48      67       37      48      
44      46       67      44      
37      67       46      37      
62      75       57      62      
75      62       26      75      
48      94       67      48      
67      94       44      67      
48      95       94      48      
95      48       50      95      
75      95       50      75      
75      97       95      75      
94      95       99      94      
57      75       50      57      
73      72       42      73      
44      72       45      44      
72      73       45      72      
44      82       72      44      
72      82       90      72      
44      94       82      44      
72      90       42      72      
