title = " tecplot file for process Mesh " 
variables = "x",  "y", "z", "cell_type" 
zone N = 99 E = 413 DATAPACKING = BLOCK,  VARLOCATION = ([4]=CELLCENTERED), ZONETYPE=FETETRAHEDRON 
-1.578482e-01     
-1.840360e-01     -1.544154e-01     -2.398445e-01     -1.126532e-01     -1.661876e-01     
-2.973002e-01     -3.276804e-01     -1.286284e-01     -7.705043e-02     -2.219904e-03     
-5.978610e-02     -6.448521e-02     -5.899501e-02     -1.321488e-03     -2.357043e-01     
-2.941142e-01     -1.455835e-01     2.298208e-02     -8.249390e-02     5.099820e-02     
-1.508407e-01     -2.504506e-01     -2.885194e-01     -2.187474e-01     -9.169678e-02     
-7.259330e-02     -2.117630e-01     -1.260565e-01     -4.116511e-02     -1.235899e-01     
-4.494119e-02     -4.979227e-03     -1.592612e-01     -2.195652e-01     -1.874493e-01     
-1.123977e-01     -1.717705e-01     -8.326735e-02     -1.918203e-01     -4.048229e-01     
-3.351033e-01     -3.257467e-01     -3.190908e-01     -3.057680e-01     -2.711606e-01     
-2.644272e-01     -2.204938e-01     -2.873063e-01     -3.133363e-01     -3.315409e-01     
-2.234484e-01     -1.231269e-01     -1.566757e-01     -2.688934e-01     -1.983751e-01     
-2.923586e-02     -2.178522e-02     3.490453e-02     -8.906240e-02     9.976539e-02     
2.813883e-02     2.133663e-02     -4.701431e-02     -4.713288e-02     2.905901e-02     
-2.328602e-01     -1.752325e-01     -2.391774e-01     -9.724456e-02     -1.803283e-01     
-1.295475e-01     9.822835e-05     -5.759796e-02     -1.985911e-01     -1.372274e-01     
-7.420712e-02     -2.362282e-02     -2.095044e-01     -3.165824e-02     9.402633e-03     
6.713383e-02     -1.007032e-01     -9.934045e-02     -1.198214e-01     -1.979535e-02     
4.927584e-02     -1.980450e-02     -3.809240e-02     -9.481050e-02     -1.170894e-01     
2.567880e-02     1.517068e-02     -1.143022e-01     -1.504259e-01     -1.471830e-02     
-8.826555e-02     -1.600410e-01     -2.597987e-01     
5.000000e-01     
4.139662e-01     5.000000e-01     5.000000e-01     5.000000e-01     4.153015e-01     
4.178582e-01     5.000000e-01     4.004149e-01     5.000000e-01     5.000000e-01     
4.098295e-01     5.000000e-01     5.000000e-01     4.034381e-01     3.448426e-01     
4.061553e-01     4.127330e-01     4.202925e-01     4.029161e-01     3.438358e-01     
2.813972e-01     3.899031e-01     3.111055e-01     3.546374e-01     3.546533e-01     
3.250863e-01     3.391044e-01     3.102992e-01     2.975135e-01     2.798383e-01     
2.392823e-01     2.907968e-01     3.034090e-01     2.656519e-01     1.874650e-01     
3.536054e-01     3.008064e-01     2.713148e-01     1.996415e-01     1.368977e-01     
6.012513e-02     7.434720e-02     1.960923e-01     5.341083e-04     -4.694584e-04     
9.851786e-02     2.618667e-01     1.837134e-01     1.318267e-01     2.397362e-01     
1.567025e-01     1.816885e-01     2.329137e-01     2.717184e-01     1.916719e-01     
1.542729e-01     2.582000e-01     1.444082e-01     2.243280e-01     6.200321e-02     
2.280225e-02     1.266201e-01     3.464004e-01     5.267871e-02     -4.029087e-02     
1.794806e-01     -5.581811e-03     -5.227723e-02     2.073334e-01     9.721807e-02     
1.139759e-01     6.465504e-02     1.039844e-01     -6.445561e-02     2.967240e-02     
7.852802e-02     2.650584e-02     8.959515e-02     9.773667e-02     4.377349e-02     
1.077926e-01     2.619822e-02     -2.124176e-02     8.944716e-02     2.005905e-01     
1.473833e-01     2.079427e-01     1.641181e-01     1.319178e-01     1.427798e-01     
1.989295e-01     1.115827e-01     1.904391e-01     1.972467e-01     1.290992e-01     
4.389286e-01     3.322039e-01     2.875741e-01     
-1.627100e-01     
-1.213704e-01     -6.985983e-02     -1.315413e-01     -2.373861e-01     -2.130554e-01     
-1.380406e-01     -9.101599e-02     -1.518372e-02     -2.779790e-02     -2.366291e-01     
-2.671951e-01     -3.275702e-01     -1.328848e-01     -1.709137e-01     -1.800250e-01     
-2.409927e-01     -3.042047e-01     -3.056513e-01     -1.073510e-01     -2.395470e-01     
-8.719599e-02     -6.931173e-02     -6.285127e-02     -2.757137e-01     -1.924303e-01     
-3.260200e-01     2.885639e-03     -4.823775e-03     -4.334588e-02     -2.475486e-01     
-3.534882e-01     -1.560208e-01     -1.713404e-01     -2.351191e-01     -1.750036e-01     
-2.665914e-01     7.929981e-02     6.506231e-02     1.703506e-02     -8.658382e-02     
-1.156740e-01     1.258007e-02     -4.586274e-02     5.383750e-02     -3.926417e-02     
-4.403614e-02     -3.766535e-02     5.126215e-02     -1.823315e-01     -1.314071e-01     
-2.495125e-01     -2.489276e-01     -3.332785e-01     -1.714648e-01     1.150726e-01     
-2.571945e-01     -2.536128e-01     -3.333888e-01     -1.536799e-01     8.092342e-02     
-5.066427e-02     5.222241e-02     -1.358555e-01     2.068263e-02     5.922692e-02     
-8.880661e-02     -3.863238e-03     3.325330e-02     -3.198280e-02     1.555004e-02     
-7.257091e-02     -2.319624e-01     -3.402914e-01     -9.710986e-02     -1.593557e-01     
-1.912195e-01     -1.452995e-01     -1.264903e-01     -7.657097e-02     9.414728e-02     
-1.710265e-01     -5.257005e-02     5.291877e-02     9.974062e-02     -9.002747e-02     
-4.746935e-02     2.382818e-02     1.235447e-01     2.148884e-02     -1.528913e-01     
-1.850126e-01     1.252687e-01     8.572555e-02     -9.718431e-02     -1.549413e-01     
-1.838818e-01     -3.381193e-01     1.660503e-02     

0      
0      0      0      0      0      0      0      0      0      0      
0      0      0      0      0      0      0      0      0      0      
0      0      0      0      0      0      0      0      0      0      
0      0      0      0      0      0      0      0      0      0      
0      0      0      0      0      0      0      0      0      0      
0      0      0      0      0      0      0      0      0      0      
0      0      0      0      0      0      0      0      0      0      
0      0      0      0      0      0      0      0      0      0      
0      0      0      0      0      0      0      0      0      0      
0      0      0      0      0      0      0      0      0      0      
0      0      0      0      0      0      0      0      0      0      
0      0      0      0      0      0      0      0      0      0      
0      0      0      0      0      0      0      0      0      0      
0      0      0      0      0      0      0      0      0      0      
0      0      0      0      0      0      0      0      0      0      
0      0      0      0      0      0      0      0      0      0      
0      0      0      0      0      0      0      0      0      0      
0      0      0      0      0      0      0      0      0      0      
0      0      0      0      0      0      0      0      0      0      
0      0      0      0      0      0      0      0      0      0      
0      0      0      0      0      0      0      0      0      0      
0      0      0      0      0      0      0      0      0      0      
0      0      0      0      0      0      0      0      0      0      
0      0      1      1      1      1      1      1      1      1      
1      1      1      1      1      1      1      1      1      1      
1      1      1      1      1      1      1      1      1      1      
1      1      1      1      1      1      1      1      1      1      
1      1      1      1      1      1      1      1      1      1      
1      1      1      1      1      1      1      1      1      1      
1      1      1      1      1      1      1      1      1      1      
1      1      1      1      1      1      1      1      1      1      
1      1      1      1      1      1      1      1      1      1      
1      1      1      1      1      1      1      1      1      1      
1      1      1      1      1      1      1      1      1      1      
1      1      1      1      1      1      1      1      1      1      
1      1      1      1      1      1      1      1      1      1      
1      1      1      1      1      1      1      1      1      1      
1      1      1      1      1      1      1      1      1      1      
1      1      1      1      1      1      1      1      1      1      
1      1      1      1      1      1      1      1      1      1      
1      1      1      1      1      1      1      1      1      1      
1      1      

1      2      3      20      
3      2      1      4      
4      3      2      23      
4      2      1      6      
1      6      2      97      
4      2      6      7      
2      6      7      16      
2      7      4      23      
11      12      5      97      
5      12      11      13      
13      12      11      19      
2      16      7      23      
6      16      2      34      
15      19      12      21      
12      19      15      11      
11      15      12      97      
14      20      3      10      
3      20      14      1      
1      20      14      97      
2      20      1      97      
3      20      2      9      
9      20      2      22      
3      9      2      23      
3      20      9      10      
12      15      21      26      
2      22      20      34      
9      22      2      23      
4      23      7      8      
16      23      2      22      
16      23      22      24      
2      16      22      34      
6      25      16      34      
16      25      6      17      
21      26      15      33      
12      15      26      97      
12      26      21      58      
15      33      26      64      
21      26      33      58      
6      34      2      26      
26      34      2      20      
6      26      2      97      
6      34      26      37      
20      34      22      64      
26      34      20      64      
2      26      20      97      
31      36      34      60      
34      36      31      35      
31      35      36      53      
31      34      35      25      
25      34      6      37      
25      31      34      37      
26      6      37      12      
26      37      34      31      
31      26      37      58      
31      34      26      60      
6      25      37      18      
31      37      25      98      
18      25      37      98      
18      37      6      12      
18      37      12      27      
27      37      12      58      
18      37      27      98      
29      38      40      48      
40      38      29      39      
39      40      38      94      
39      29      40      70      
47      46      43      71      
43      46      47      42      
42      47      43      44      
42      46      47      79      
22      48      29      70      
29      48      22      28      
28      29      48      38      
28      48      22      24      
29      48      40      70      
43      49      47      71      
47      49      43      44      
44      47      49      67      
42      50      44      41      
44      50      42      47      
47      44      50      67      
47      50      42      79      
42      41      44      43      
35      53      31      54      
54      35      53      52      
35      53      52      36      
31      53      36      60      
36      53      52      91      
22      55      48      67      
48      55      22      24      
24      48      55      51      
48      55      51      67      
57      58      59      92      
59      58      57      32      
32      57      59      74      
32      58      57      53      
31      27      58      37      
58      27      31      32      
31      58      32      53      
37      58      26      12      
31      26      58      60      
31      27      37      98      
26      33      58      60      
31      58      53      60      
57      53      58      60      
57      32      53      74      
34      60      36      22      
36      60      53      91      
57      53      60      91      
57      60      58      92      
26      60      34      64      
60      64      22      34      
22      64      60      30      
30      22      64      20      
30      60      22      70      
30      64      60      33      
33      60      30      86      
33      64      60      26      
20      26      64      15      
55      67      22      36      
36      67      22      95      
22      67      48      95      
47      49      67      71      
47      67      50      79      
46      69      68      75      
68      69      46      45      
45      46      68      71      
22      48      70      95      
40      70      48      95      
22      70      60      95      
30      60      70      86      
39      70      40      94      
67      71      72      79      
72      71      67      40      
40      72      71      90      
40      67      72      95      
40      71      67      49      
68      71      46      79      
45      46      71      43      
46      71      47      79      
68      46      75      79      
50      79      67      36      
36      79      67      95      
67      79      47      71      
68      79      75      83      
77      80      76      91      
76      80      77      78      
78      76      80      83      
78      80      77      96      
65      80      63      90      
63      80      65      62      
62      65      63      81      
62      80      65      83      
66      81      62      61      
62      81      66      65      
63      81      65      93      
62      81      63      61      
61      81      63      93      
78      80      62      83      
62      80      78      82      
78      82      80      96      
80      83      76      72      
72      80      83      90      
72      76      80      91      
72      83      76      79      
65      83      80      90      
72      79      76      91      
72      83      79      71      
65      71      84      83      
84      71      65      85      
65      85      71      90      
30      86      70      88      
60      70      86      95      
33      60      86      92      
80      86      72      91      
72      86      80      70      
70      72      86      95      
70      80      72      90      
70      86      80      88      
30      88      70      39      
39      88      70      94      
80      70      88      90      
80      88      86      87      
87      86      80      96      
71      90      85      94      
65      85      90      89      
65      90      71      83      
85      90      89      94      
65      89      90      63      
65      85      89      93      
63      89      90      88      
63      65      89      93      
88      90      63      80      
89      90      88      94      
88      90      70      94      
70      90      72      40      
72      90      83      71      
40      70      90      94      
40      72      70      95      
40      90      71      94      
57      91      60      96      
72      91      86      95      
80      86      91      96      
72      79      91      95      
52      36      91      79      
60      91      36      95      
60      92      57      96      
58      92      60      33      
60      86      92      96      
94      71      40      56      
40      56      71      49      
86      95      91      60      
86      60      91      96      
67      95      79      72      
79      91      95      36      
40      67      95      48      
36      95      22      60      
57      82      96      92      
96      82      57      73      
57      73      82      59      
82      92      57      59      
80      96      91      77      
24      28      48      99      
68      71      79      83      
71      83      68      84      
15      97      20      26      
20      97      15      14      
14      97      15      11      
12      97      26      6      
14      97      11      5      
14      97      5      1      
5      97      12      6      
6      97      1      5      
4      3       1      4      
13      5       11      13      
1      3       14      1      
10      14       3      10      
11      5       14      11      
5      1       14      5      
66      61       81      66      
65      85       84      65      
81      93       65      81      
65      93       85      65      
85      93       89      85      
93      81       61      93      
20      14       10      20      
64      30       33      64      
64      33       15      64      
20      64       15      20      
30      64       20      30      
30      86       33      30      
87      86       88      87      
30      88       86      30      
88      30       39      88      
63      88       89      63      
89      93       63      89      
63      93       61      63      
39      94       88      39      
38      94       39      38      
20      15       14      20      
94      89       88      94      
61      62       63      61      
65      62       66      65      
80      63       62      80      
62      82       80      62      
78      82       62      78      
88      80       87      88      
63      80       88      63      
33      92       58      33      
86      92       33      86      
82      96       73      82      
92      96       82      92      
96      92       86      96      
78      96       82      78      
80      82       96      80      
80      96       87      80      
96      86       87      96      
59      82       73      59      
58      92       59      58      
59      92       82      59      
61      66       62      61      
11      14       15      11      
11      15       19      11      
11      19       13      11      
15      21       19      15      
15      33       21      15      
58      59       32      58      
27      58       32      27      
33      58       21      33      
59      74       32      59      
66      81       65      66      
68      45       69      68      
68      71       45      68      
45      71       43      45      
71      84       85      71      
56      49       71      56      
43      71       49      43      
84      71       68      84      
29      38       39      29      
28      38       29      28      
89      94       85      89      
71      94       56      71      
85      94       71      85      
3      9       10      3      
9      20       10      9      
22      20       9      22      
8      7       23      8      
4      8       23      4      
22      23       24      22      
3      23       9      3      
22      28       29      22      
20      22       30      20      
41      42       43      41      
41      43       44      41      
38      48       40      38      
28      48       38      28      
43      49       44      43      
44      50       41      44      
41      50       42      41      
24      51       48      24      
24      55       51      24      
49      56       40      49      
67      48       51      67      
44      67       50      44      
49      67       44      49      
29      70       22      29      
22      70       30      22      
39      30       70      39      
39      70       29      39      
56      94       40      56      
40      94       38      40      
48      67       40      48      
9      23       22      9      
3      4       23      3      
28      22       24      28      
40      67       49      40      
28      99       48      28      
99      28       24      99      
48      99       24      48      
5      6       1      5      
1      6       4      1      
6      7       4      6      
4      7       8      4      
12      5       13      12      
16      7       6      16      
17      16       6      17      
12      18       6      12      
5      12       6      5      
13      19       12      13      
19      21       12      19      
7      16       23      7      
16      24       23      16      
22      24       16      22      
6      25       17      6      
6      18       25      6      
17      25       16      17      
12      27       18      12      
22      55       24      22      
12      21       58      12      
12      58       27      12      
18      27       98      18      
18      98       25      18      
31      27       32      31      
16      34       22      16      
36      34       35      36      
25      34       16      25      
31      35       25      31      
35      34       25      35      
36      35       52      36      
32      53       31      32      
54      31       53      54      
54      53       52      54      
35      31       54      35      
52      35       54      52      
36      22       34      36      
36      55       22      36      
67      55       36      67      
55      67       51      55      
36      50       67      36      
79      50       36      79      
52      79       36      52      
53      32       74      53      
25      98       31      25      
31      98       27      31      
45      43       46      45      
46      43       42      46      
46      69       45      46      
57      59       73      57      
57      74       59      57      
57      53       74      57      
46      75       69      46      
69      75       68      69      
76      77       78      76      
50      79       42      50      
46      79       75      46      
83      76       78      83      
62      83       78      62      
62      65       83      62      
68      75       83      68      
76      83       79      76      
83      84       68      83      
65      84       83      65      
91      53       57      91      
79      91       76      79      
53      91       52      53      
73      96       57      73      
91      96       77      91      
57      96       91      57      
77      96       78      77      
76      91       77      76      
79      46       42      79      
91      79       52      91      
75      79       83      75      
