title = " tecplot file for process Mesh " 
variables = "x",  "y", "z", "cell_type" 
zone N = 93 E = 396 DATAPACKING = BLOCK,  VARLOCATION = ([4]=CELLCENTERED), ZONETYPE=FETETRAHEDRON 
5.080864e-02     
-3.540247e-02     4.917966e-02     0.000000e+00     1.000000e-01     1.641138e-01     
2.179737e-01     1.332320e-01     7.682920e-02     4.807595e-02     1.489808e-01     
-6.869719e-02     -1.185787e-01     -1.174383e-01     5.022342e-02     1.014158e-01     
1.038279e-01     1.501960e-01     -8.199876e-03     -9.600407e-03     -6.867730e-02     
-7.986896e-02     9.913592e-02     1.477181e-01     9.603820e-02     -1.653230e-01     
1.016471e-01     -2.952837e-02     -9.207013e-03     9.838253e-03     7.343925e-04     
-7.803892e-02     -5.687357e-02     -9.244673e-02     -2.044177e-01     -1.347634e-01     
-2.062115e-01     -9.680503e-02     -6.117448e-02     3.693300e-02     4.568436e-02     
-3.245935e-02     3.991298e-02     -1.117969e-02     9.265160e-02     1.156640e-01     
-1.341925e-02     -2.343745e-01     1.016838e-01     -1.280405e-01     -4.975425e-02     
-1.442420e-01     -2.636471e-02     -1.294957e-01     7.905179e-02     9.249366e-02     
2.905901e-02     1.158583e-01     -1.957481e-02     -4.713288e-02     -6.652962e-02     
-1.283116e-01     -2.453883e-01     -3.031029e-01     -2.291930e-01     -1.581102e-01     
-7.154611e-02     -5.282128e-02     -4.619762e-02     -2.331233e-01     -1.660979e-01     
1.084511e-01     -7.100724e-02     1.507115e-02     9.402633e-03     2.622141e-02     
-2.272779e-01     -1.836712e-01     -1.450965e-01     -9.934045e-02     -1.901810e-01     
-9.435983e-02     -7.328833e-02     9.364570e-02     4.099856e-02     2.500251e-03     
-2.441756e-02     -1.514510e-01     -1.179282e-01     -1.243483e-01     3.651089e-03     
4.158654e-03     -1.184857e-01     
-4.172929e-01     
-5.000000e-01     -5.000000e-01     -5.000000e-01     -5.000000e-01     -5.000000e-01     
-4.098891e-01     -5.000000e-01     -4.238832e-01     -5.000000e-01     -4.166559e-01     
-5.000000e-01     -5.000000e-01     -4.074352e-01     -5.000000e-01     -4.061212e-01     
-5.000000e-01     -5.000000e-01     -5.000000e-01     -4.042089e-01     -5.000000e-01     
-4.108879e-01     -3.361127e-01     -3.607857e-01     -2.829525e-01     -4.109369e-01     
-4.001285e-01     -4.127798e-01     -4.028995e-01     -2.789418e-01     -3.722498e-01     
-3.153887e-01     -2.754262e-01     -3.773884e-01     -2.414552e-01     -3.212259e-01     
-2.943064e-01     -2.902955e-01     -3.252928e-01     -3.232240e-01     -3.176117e-01     
-3.271123e-01     -2.741064e-01     -3.218524e-01     -3.229198e-01     -3.183128e-01     
-2.391649e-01     -2.038090e-01     -1.889891e-01     -2.411671e-01     2.644615e-03     
-6.870312e-02     -9.755535e-02     -1.719767e-01     -2.734712e-01     -2.045178e-01     
-4.029087e-02     -1.516871e-01     -1.540425e-01     5.267871e-02     -5.878848e-02     
-2.562685e-01     -1.663794e-01     -1.442318e-01     -1.007283e-01     -1.642414e-01     
-1.651691e-01     -2.126662e-01     -2.431931e-01     -7.266438e-02     -1.382190e-01     
-2.046765e-01     -9.508555e-02     -2.073369e-01     4.377349e-02     -1.703304e-01     
7.852036e-03     -5.653861e-03     -1.470839e-02     -2.124176e-02     -1.788628e-01     
-7.024213e-02     -1.822619e-01     -8.588324e-02     -1.277071e-01     -2.701045e-01     
-2.158492e-02     -9.010675e-02     -1.181168e-01     -2.303986e-01     -1.016461e-01     
-1.960583e-01     -1.601817e-01     
5.000000e-01     
4.167737e-01     4.323314e-01     5.000000e-01     5.000000e-01     3.264322e-01     
3.565691e-01     4.164449e-01     3.959635e-01     3.391143e-01     5.000000e-01     
1.365092e-01     2.383139e-01     1.787115e-01     1.373134e-01     1.777201e-01     
2.390307e-01     1.568161e-01     2.358618e-01     3.008586e-01     3.275999e-01     
3.860812e-01     5.000000e-01     4.195762e-01     4.229714e-01     2.721695e-01     
2.894633e-01     2.099598e-01     1.192813e-01     4.185878e-01     4.146318e-01     
4.012171e-01     1.706430e-01     3.064936e-01     1.283477e-01     1.478924e-01     
2.013016e-01     3.097256e-01     6.678495e-02     1.703431e-01     6.557520e-02     
2.505627e-01     2.813638e-01     3.397126e-01     3.396144e-01     2.358952e-01     
8.744332e-02     2.415824e-01     2.219312e-01     2.299416e-01     2.669787e-01     
3.061934e-01     2.826959e-01     3.004067e-01     3.849417e-03     4.785591e-02     
5.922692e-02     -3.152298e-02     3.413638e-02     2.068263e-02     -2.919534e-02     
7.108794e-02     1.329907e-01     1.951654e-01     1.473061e-01     1.248303e-01     
2.009720e-01     3.279381e-01     -1.155453e-02     2.410548e-01     2.175688e-01     
1.350005e-01     1.139302e-01     1.770450e-01     9.414728e-02     -4.453414e-02     
1.017809e-01     2.149141e-01     1.371372e-01     5.291877e-02     1.847153e-01     
2.163687e-01     1.154614e-01     2.095514e-01     1.148639e-01     2.163492e-01     
1.585659e-01     7.554143e-02     1.657129e-01     1.517605e-01     1.953350e-01     
2.633477e-01     5.207872e-02     

0      
0      0      0      0      0      0      0      0      0      0      
0      0      0      0      0      0      0      0      0      0      
0      0      0      0      0      0      0      0      0      0      
0      0      0      0      0      0      0      0      0      0      
0      0      0      0      0      0      0      0      0      0      
0      0      0      0      0      0      0      0      0      0      
0      0      0      0      0      0      0      0      0      0      
0      0      0      0      0      0      0      0      0      0      
0      0      0      0      0      0      0      0      0      0      
0      0      0      0      0      0      0      0      0      0      
0      0      0      0      0      0      0      0      0      0      
0      0      0      0      0      0      0      0      0      0      
0      0      0      0      0      0      0      0      0      0      
0      0      0      0      0      0      0      0      0      0      
0      0      0      0      0      0      0      0      0      0      
0      0      0      0      0      0      0      0      0      0      
0      0      0      0      0      0      0      0      0      0      
0      0      0      0      0      0      0      0      0      0      
0      0      0      0      0      0      0      0      0      0      
0      0      0      0      0      0      0      0      0      0      
0      0      0      0      0      0      0      0      0      0      
0      0      0      0      0      0      0      0      0      0      
0      0      0      0      0      0      0      0      0      0      
0      0      0      1      1      1      1      1      1      1      
1      1      1      1      1      1      1      1      1      1      
1      1      1      1      1      1      1      1      1      1      
1      1      1      1      1      1      1      1      1      1      
1      1      1      1      1      1      1      1      1      1      
1      1      1      1      1      1      1      1      1      1      
1      1      1      1      1      1      1      1      1      1      
1      1      1      1      1      1      1      1      1      1      
1      1      1      1      1      1      1      1      1      1      
1      1      1      1      1      1      1      1      1      1      
1      1      1      1      1      1      1      1      1      1      
1      1      1      1      1      1      1      1      1      1      
1      1      1      1      1      1      1      1      1      1      
1      1      1      1      1      1      1      1      1      1      
1      1      1      1      1      1      1      1      1      1      
1      1      1      1      1      1      1      1      1      1      
1      1      1      1      1      

1      2      3      9      
3      2      1      4      
1      3      4      5      
5      1      3      9      
6      9      10      27      
10      9      6      8      
8      10      9      3      
8      9      6      7      
8      9      7      24      
6      7      9      27      
10      9      2      20      
2      9      10      3      
8      3      9      5      
5      1      9      11      
1      9      11      23      
15      16      17      19      
17      16      15      18      
15      16      19      28      
17      19      16      27      
19      20      21      13      
21      20      19      10      
10      21      20      2      
10      20      19      27      
9      20      10      27      
2      20      9      31      
7      24      9      27      
9      27      24      45      
17      27      10      19      
10      27      17      6      
9      20      27      45      
19      27      20      28      
16      27      19      28      
20      28      27      42      
19      28      20      13      
12      28      13      14      
13      28      12      19      
19      28      12      15      
14      28      13      34      
23      31      9      25      
9      31      23      1      
1      9      31      2      
20      31      2      22      
9      31      20      45      
20      31      22      44      
28      33      29      40      
29      33      28      14      
14      29      33      36      
14      33      28      42      
34      13      14      26      
13      34      28      20      
14      28      34      42      
20      13      34      21      
20      34      28      42      
38      36      34      42      
34      36      38      37      
37      34      36      14      
37      36      38      50      
33      36      29      39      
14      36      33      42      
33      36      39      62      
29      33      39      40      
33      40      28      42      
39      40      33      47      
20      42      43      44      
43      42      20      27      
27      43      42      46      
27      20      43      45      
20      34      42      44      
40      42      33      86      
28      42      40      27      
36      42      38      50      
34      38      42      44      
34      42      36      14      
33      42      36      50      
32      44      30      68      
30      44      32      31      
31      30      44      45      
31      44      32      22      
34      44      20      22      
38      42      44      68      
38      44      34      32      
32      44      34      22      
38      44      32      68      
43      44      42      68      
20      44      43      45      
31      44      20      45      
43      45      44      30      
30      44      43      68      
25      45      31      9      
31      45      25      30      
9      25      45      24      
9      25      24      23      
27      46      42      40      
43      42      46      86      
40      46      42      86      
40      47      41      72      
41      47      40      39      
39      41      47      69      
33      39      47      62      
33      47      40      74      
38      50      42      68      
33      42      50      86      
33      50      36      90      
37      36      50      90      
41      55      47      69      
47      55      41      56      
56      47      55      69      
56      41      47      72      
36      62      33      90      
47      62      39      69      
33      62      47      83      
67      68      53      92      
53      68      67      54      
54      67      53      82      
54      68      67      50      
42      43      68      86      
50      68      67      92      
54      50      67      71      
47      69      56      59      
59      47      69      93      
59      56      47      85      
59      69      56      76      
56      69      55      76      
67      71      50      81      
54      71      67      82      
56      72      47      85      
47      72      40      74      
57      73      61      80      
61      73      57      59      
59      61      73      93      
59      73      57      85      
49      74      72      85      
72      74      49      40      
40      74      49      86      
47      74      33      83      
40      33      74      86      
47      72      74      85      
59      76      56      58      
59      58      56      85      
65      79      77      88      
77      79      65      78      
65      78      79      89      
71      78      65      89      
65      78      71      70      
70      78      71      52      
80      61      57      60      
57      80      60      75      
73      80      57      87      
61      80      73      88      
50      81      71      48      
48      50      81      37      
48      81      71      64      
71      81      67      89      
50      67      81      90      
64      48      81      63      
64      81      71      65      
65      64      81      63      
65      81      71      89      
48      81      63      35      
63      81      65      66      
63      81      66      35      
65      66      81      89      
48      81      35      37      
35      81      66      90      
37      81      35      90      
50      81      37      90      
53      51      82      91      
82      51      53      52      
53      82      52      54      
54      82      52      71      
71      82      52      78      
53      82      67      91      
67      82      71      89      
33      83      74      67      
47      74      83      85      
67      83      74      91      
33      67      74      86      
33      83      67      90      
59      85      47      83      
59      83      47      93      
59      85      83      73      
74      83      85      91      
73      83      59      93      
73      85      83      91      
57      85      73      87      
59      85      57      58      
74      86      67      92      
33      67      86      50      
67      50      33      90      
67      86      50      92      
50      86      42      68      
43      68      86      92      
49      40      86      46      
49      86      74      92      
46      86      49      43      
43      86      49      92      
73      87      85      91      
80      87      73      79      
79      73      80      88      
79      87      73      82      
82      87      73      91      
79      82      73      89      
65      79      88      89      
79      73      88      89      
71      89      82      78      
67      82      89      91      
73      89      82      91      
79      82      89      78      
88      89      73      93      
67      89      81      90      
83      90      89      67      
89      90      83      66      
66      89      90      81      
66      83      89      93      
66      90      83      62      
67      89      83      91      
33      83      90      62      
62      90      36      35      
62      90      35      66      
36      35      90      37      
66      62      83      93      
91      87      85      84      
85      91      84      49      
89      91      73      83      
74      67      91      92      
74      91      85      49      
67      53      91      92      
49      74      91      92      
84      49      91      92      
86      68      50      92      
47      83      62      93      
89      83      73      93      
84      92      91      53      
61      73      93      88      
4      2       3      4      
3      5       4      3      
5      1       4      5      
8      10       6      8      
3      2       10      3      
8      3       10      8      
8      5       3      8      
5      11       1      5      
18      17       15      18      
17      19       15      17      
10      21       19      10      
2      21       10      2      
6      10       17      6      
10      19       17      10      
19      13       12      19      
15      19       12      15      
1      11       23      1      
21      13       19      21      
6      7       8      6      
9      5       8      9      
5      9       11      5      
8      7       24      8      
8      24       9      8      
7      27       24      7      
6      27       7      6      
16      27       17      16      
17      27       6      17      
45      43       30      45      
25      45       30      25      
43      45       27      43      
24      45       25      24      
27      45       24      27      
27      46       43      27      
46      49       43      46      
49      92       43      49      
16      17       18      16      
40      49       46      40      
41      55       56      41      
40      72       49      40      
72      41       56      72      
72      40       41      72      
51      52       53      51      
55      76       56      55      
56      76       58      56      
75      80       57      75      
84      49       85      84      
56      85       72      56      
58      85       56      58      
87      85       57      87      
80      87       57      80      
85      87       84      85      
87      91       84      87      
91      51       53      91      
84      91       53      84      
85      58       57      85      
85      49       72      85      
84      92       49      84      
53      92       84      53      
77      78       79      77      
80      75       60      80      
79      78       82      79      
52      82       78      52      
51      82       52      51      
87      80       79      87      
82      87       79      82      
91      87       82      91      
51      91       82      51      
60      57       61      60      
2      4       1      2      
20      21       2      20      
22      20       2      22      
23      24       25      23      
25      30       31      25      
25      31       23      25      
1      23       31      1      
2      1       31      2      
2      31       22      2      
30      32       31      30      
22      31       32      22      
13      34       26      13      
20      34       21      20      
21      34       13      21      
22      34       20      22      
34      38       37      34      
34      32       38      34      
34      22       32      34      
48      37       50      48      
38      50       37      38      
68      53       54      68      
50      68       54      50      
38      68       50      38      
30      68       32      30      
32      68       38      32      
70      71       52      70      
54      52       71      54      
54      71       50      54      
48      50       71      48      
48      71       64      48      
65      71       70      65      
64      71       65      64      
23      11       9      23      
23      9       24      23      
43      68       30      43      
68      92       53      68      
92      68       43      92      
13      26       14      13      
26      34       14      26      
37      48       35      37      
48      63       35      48      
64      63       48      64      
14      34       37      14      
12      13       14      12      
15      16       18      15      
16      28       27      16      
14      28       12      14      
15      28       16      15      
12      28       15      12      
29      28       14      29      
35      36       37      35      
36      29       14      36      
36      39       29      36      
14      37       36      14      
27      28       40      27      
29      40       28      29      
39      40       29      39      
41      40       39      41      
27      40       46      27      
57      58       59      57      
59      61       57      59      
35      62       36      35      
36      62       39      36      
47      69       62      47      
62      69       39      62      
69      41       39      69      
41      69       55      41      
55      69       76      55      
76      69       59      76      
58      76       59      58      
61      93       88      61      
61      59       93      61      
93      62       66      93      
69      93       59      69      
47      93       69      47      
47      62       93      47      
62      35       66      62      
53      52       54      53      
65      63       64      65      
66      63       65      66      
78      77       65      78      
70      78       65      70      
70      52       78      70      
63      66       35      63      
79      80       88      79      
79      88       77      79      
77      88       65      77      
65      88       89      65      
65      89       66      65      
93      89       88      93      
89      93       66      89      
60      75       57      60      
60      61       80      60      
61      88       80      61      
