title = " tecplot file for process Mesh " 
variables = "x",  "y", "z", "cell_type" 
zone N = 88 E = 385 DATAPACKING = BLOCK,  VARLOCATION = ([4]=CELLCENTERED), ZONETYPE=FETETRAHEDRON 
-4.174582e-01     
-5.000000e-01     -5.000000e-01     -4.300082e-01     -3.396938e-01     -3.382110e-01     
-3.000000e-01     -4.000000e-01     -5.000000e-01     -4.174151e-01     -5.000000e-01     
-5.000000e-01     -5.000000e-01     -4.148796e-01     -5.000000e-01     -5.000000e-01     
-5.000000e-01     -5.000000e-01     -5.000000e-01     -4.186006e-01     -5.000000e-01     
-5.000000e-01     -4.181680e-01     -5.000000e-01     -4.334625e-01     -5.000000e-01     
-4.307540e-01     -5.000000e-01     -3.963495e-01     -3.327696e-01     -2.767641e-01     
-3.889933e-01     -4.156098e-01     -5.000000e-01     -5.000000e-01     -5.000000e-01     
-4.149223e-01     -5.000000e-01     -5.000000e-01     -4.094959e-01     -5.000000e-01     
-5.000000e-01     -4.054680e-01     -3.420074e-01     -5.000000e-01     -5.000000e-01     
-4.123832e-01     -5.000000e-01     -5.000000e-01     -4.043221e-01     -5.000000e-01     
-4.181735e-01     -3.308440e-01     -4.158854e-01     -5.000000e-01     -5.000000e-01     
-5.000000e-01     -4.004549e-01     -4.056106e-01     -3.099849e-01     -3.306552e-01     
-3.051846e-01     -4.399391e-01     -4.147694e-01     -4.146932e-01     -4.180836e-01     
-3.277610e-01     -4.239135e-01     -4.035991e-01     -4.060760e-01     -4.106734e-01     
-4.218128e-01     -2.972832e-01     -3.971841e-01     -3.622040e-01     -3.887956e-01     
-3.315044e-01     -3.423193e-01     -3.142911e-01     -3.211086e-01     -3.715065e-01     
-3.154859e-01     -3.381802e-01     -3.220927e-01     -3.121240e-01     -3.343488e-01     
-3.394680e-01     -3.292940e-01     
3.398147e-01     
4.296004e-01     4.000000e-01     4.281086e-01     5.000000e-01     3.988175e-01     
5.000000e-01     5.000000e-01     1.000000e-01     1.370069e-01     1.333080e-01     
2.000000e-01     -1.355545e-01     -1.336553e-01     -1.000000e-01     3.370320e-01     
3.000000e-01     5.000000e-01     4.165810e-01     5.000000e-01     5.000000e-01     
-3.537634e-02     -3.316353e-02     0.000000e+00     5.140927e-02     4.922071e-02     
5.000000e-01     5.000000e-01     4.195011e-01     5.000000e-01     4.185140e-01     
4.187050e-01     5.000000e-01     4.133538e-01     3.282459e-01     1.440880e-01     
3.543992e-02     5.240016e-02     2.576814e-01     2.183271e-01     2.327756e-01     
1.645243e-01     7.691753e-02     5.286281e-02     4.822392e-02     1.526509e-01     
1.782931e-01     2.381404e-01     2.245709e-01     2.701661e-01     -6.874158e-02     
-7.989080e-02     -6.463987e-02     1.032302e-01     1.046394e-01     -8.081868e-03     
3.244648e-01     2.998565e-01     4.826049e-02     3.360426e-01     2.828105e-01     
-4.929095e-03     2.884780e-01     2.384047e-01     3.650961e-01     1.588279e-01     
1.729900e-01     3.424513e-01     1.984875e-01     -8.056237e-03     1.311984e-01     
2.169070e-03     1.245069e-01     2.828877e-01     -5.915017e-02     -2.226164e-03     
5.796610e-02     3.405978e-01     1.924633e-01     3.307454e-01     1.277019e-01     
1.887685e-01     -6.697607e-02     2.280878e-01     2.574947e-01     8.257817e-02     
2.806057e-01     1.687735e-02     
5.000000e-01     
4.284208e-01     5.000000e-01     5.000000e-01     4.035385e-01     5.000000e-01     
5.000000e-01     5.000000e-01     5.000000e-01     5.000000e-01     4.156557e-01     
5.000000e-01     4.129811e-01     5.000000e-01     5.000000e-01     3.999136e-01     
5.000000e-01     3.000000e-01     3.405117e-01     3.444298e-01     4.000000e-01     
4.157551e-01     5.000000e-01     5.000000e-01     5.000000e-01     4.315049e-01     
4.301135e-01     5.000000e-01     3.926939e-01     2.939683e-01     2.902259e-01     
2.950041e-01     2.466143e-01     2.393141e-01     2.849172e-01     6.041773e-02     
7.123904e-02     1.312398e-01     3.297193e-01     3.557799e-01     4.124802e-01     
3.251404e-01     3.947659e-01     5.000000e-01     3.371371e-01     1.549611e-01     
1.091536e-01     1.120820e-01     2.303012e-01     2.816459e-01     3.254343e-01     
3.847235e-01     5.000000e-01     1.741451e-01     2.362345e-01     2.318314e-01     
1.753759e-01     1.138530e-01     2.684010e-01     4.050799e-01     5.000000e-01     
4.036275e-01     4.358492e-01     5.000000e-01     2.126462e-01     4.170132e-01     
5.000000e-01     3.416657e-01     2.088884e-01     1.728673e-01     3.160300e-01     
3.453038e-01     3.965953e-01     1.974936e-01     2.671404e-01     4.249480e-01     
3.325482e-01     2.686448e-01     1.499436e-01     1.606223e-01     2.414858e-01     
3.118649e-01     3.511369e-01     4.117109e-01     2.120598e-01     1.741089e-01     
3.418539e-01     2.463018e-01     

0      
0      0      0      0      0      0      0      0      0      0      
0      0      0      0      0      0      0      0      0      0      
0      0      0      0      0      0      0      0      0      0      
0      0      0      0      0      0      0      0      0      0      
0      0      0      0      0      0      0      0      0      0      
0      0      0      0      0      0      0      0      0      0      
0      0      0      0      0      0      0      0      0      0      
0      0      0      0      0      0      0      0      0      0      
0      0      0      0      0      0      0      0      0      0      
0      0      0      0      0      0      0      0      0      0      
0      0      0      0      0      0      0      0      0      0      
0      0      0      0      0      0      0      0      0      0      
0      0      0      0      0      0      0      0      0      0      
0      0      0      0      0      0      0      0      0      0      
0      0      0      0      0      0      0      0      0      0      
0      0      0      0      0      0      0      0      0      0      
0      0      0      0      0      0      0      0      0      0      
0      0      0      0      0      0      0      0      0      0      
0      0      0      0      0      0      0      0      0      0      
0      0      0      0      0      0      0      0      0      0      
0      0      0      0      0      0      0      0      0      0      
0      0      0      0      0      0      0      0      0      0      
0      0      0      0      0      0      0      0      0      0      
0      0      1      1      1      1      1      1      1      1      
1      1      1      1      1      1      1      1      1      1      
1      1      1      1      1      1      1      1      1      1      
1      1      1      1      1      1      1      1      1      1      
1      1      1      1      1      1      1      1      1      1      
1      1      1      1      1      1      1      1      1      1      
1      1      1      1      1      1      1      1      1      1      
1      1      1      1      1      1      1      1      1      1      
1      1      1      1      1      1      1      1      1      1      
1      1      1      1      1      1      1      1      1      1      
1      1      1      1      1      1      1      1      1      1      
1      1      1      1      1      1      1      1      1      1      
1      1      1      1      1      1      1      1      1      1      
1      1      1      1      1      1      1      1      1      1      
1      1      1      1      1      1      1      1      1      1      
1      1      1      1      

1      2      3      16      
3      2      1      4      
4      3      2      28      
4      2      1      29      
5      8      6      29      
6      8      5      7      
9      10      11      25      
11      10      9      12      
12      11      10      66      
16      3      1      17      
1      16      17      63      
1      2      16      29      
18      19      20      32      
20      19      18      21      
21      20      19      29      
22      15      23      52      
23      15      22      24      
22      23      24      76      
24      25      26      76      
26      25      24      9      
9      26      25      11      
26      25      11      43      
11      25      10      43      
27      4      8      29      
8      4      27      28      
27      28      4      2      
27      2      4      29      
27      28      2      21      
21      2      27      29      
5      29      20      27      
20      29      5      30      
30      20      29      32      
30      29      5      31      
4      29      1      6      
6      4      29      8      
6      29      1      60      
1      29      16      63      
2      16      29      19      
27      5      29      8      
27      29      20      21      
16      29      19      68      
2      19      29      21      
19      29      20      32      
5      29      6      60      
29      31      30      32      
5      31      29      60      
31      32      29      60      
20      32      30      33      
33      20      32      18      
19      29      32      68      
18      19      32      34      
19      32      34      35      
35      32      34      65      
19      32      35      68      
39      40      41      63      
41      40      39      42      
42      41      40      66      
42      40      39      50      
26      25      43      76      
26      43      11      45      
44      43      25      76      
25      43      44      10      
10      43      44      73      
11      43      10      66      
45      43      11      71      
26      43      45      72      
46      47      36      54      
36      47      46      48      
48      47      46      69      
49      50      35      74      
35      50      49      39      
39      35      50      68      
39      50      49      42      
42      50      49      69      
39      50      40      68      
42      40      50      71      
23      14      52      15      
52      14      23      53      
23      52      53      76      
15      14      52      13      
22      15      52      13      
22      52      23      76      
13      52      22      51      
51      52      22      72      
38      54      46      36      
46      54      38      55      
55      46      54      69      
55      54      38      56      
38      54      36      37      
46      47      54      69      
38      54      37      70      
56      55      54      59      
56      54      38      70      
55      59      56      45      
45      55      59      71      
45      59      56      72      
54      59      55      81      
56      59      54      70      
1      61      60      63      
60      61      1      6      
1      60      29      63      
32      60      31      78      
29      60      32      68      
39      63      16      68      
16      63      39      41      
41      16      63      17      
41      63      40      66      
39      40      63      68      
16      63      29      68      
29      63      60      68      
61      63      64      84      
64      63      61      1      
1      64      63      17      
61      60      63      84      
17      63      41      12      
64      63      17      12      
64      63      12      66      
12      63      41      66      
35      65      57      74      
57      65      35      34      
35      32      65      68      
10      66      43      73      
11      43      66      71      
41      66      42      11      
11      41      66      12      
11      66      42      71      
42      66      40      71      
67      66      10      73      
10      66      67      64      
64      10      66      12      
64      66      67      84      
40      66      63      84      
32      68      60      78      
60      68      63      87      
40      68      50      87      
63      68      40      87      
39      68      16      35      
35      68      16      19      
50      68      35      65      
65      68      32      78      
50      65      35      74      
50      68      65      78      
42      69      49      55      
55      42      69      71      
55      69      49      46      
50      69      42      71      
49      69      50      74      
49      46      69      48      
55      69      54      81      
54      69      47      79      
49      48      69      74      
47      69      48      74      
59      70      56      75      
54      70      59      86      
37      70      54      86      
42      71      55      45      
45      42      71      11      
45      71      59      72      
55      59      71      81      
55      71      69      81      
45      43      71      72      
43      66      71      73      
40      50      71      82      
69      71      50      82      
40      71      66      73      
51      72      56      75      
56      72      51      45      
45      72      51      22      
56      72      59      75      
45      72      22      26      
22      72      52      76      
51      52      72      75      
43      71      72      77      
59      72      71      77      
22      26      72      76      
43      72      26      76      
43      73      71      77      
62      73      43      77      
43      73      62      44      
44      62      43      76      
44      10      73      67      
67      66      73      84      
58      74      48      57      
48      74      58      47      
47      74      58      79      
69      74      47      79      
57      58      74      65      
57      74      48      49      
58      74      65      80      
50      74      69      85      
35      74      57      49      
50      65      74      78      
52      72      75      83      
70      75      59      88      
59      75      72      88      
52      76      72      83      
23      76      53      44      
44      76      53      62      
23      76      44      25      
22      26      76      24      
72      76      43      62      
25      23      76      24      
43      62      77      72      
50      78      74      85      
65      74      78      80      
60      78      68      87      
68      78      50      87      
58      79      74      80      
74      79      69      85      
74      78      80      85      
59      77      81      88      
81      77      59      71      
54      59      81      86      
50      69      82      85      
40      82      71      73      
50      82      40      87      
72      62      83      76      
83      62      72      77      
72      83      77      88      
75      83      72      88      
82      84      40      87      
40      84      82      73      
73      40      84      66      
66      84      64      63      
67      64      84      61      
40      84      63      87      
60      63      84      87      
74      85      80      79      
50      78      85      87      
50      85      82      87      
59      81      86      88      
59      86      70      88      
59      77      88      72      
3      28       2      3      
2      28       21      2      
3      2       16      3      
3      16       17      3      
2      21       19      2      
19      21       18      19      
17      16       41      17      
17      41       12      17      
19      18       34      19      
12      41       11      12      
12      11       9      12      
13      15       22      13      
22      15       24      22      
9      11       26      9      
9      26       24      9      
24      26       22      24      
2      19       16      2      
13      22       51      13      
19      34       35      19      
19      35       16      19      
41      16       39      41      
39      16       35      39      
11      41       42      11      
42      41       39      42      
26      11       45      26      
45      11       42      45      
34      57       35      34      
22      26       45      22      
51      22       45      51      
39      35       49      39      
49      35       57      49      
42      39       49      42      
57      48       49      57      
45      42       55      45      
55      42       49      55      
49      48       46      49      
49      46       55      49      
45      55       56      45      
45      56       51      45      
48      36       46      48      
56      55       38      56      
55      46       38      55      
46      36       38      46      
8      28       4      8      
4      28       3      4      
8      4       6      8      
8      6       7      8      
4      3       1      4      
1      3       17      1      
1      17       64      1      
64      17       12      64      
64      12       10      64      
10      12       9      10      
15      14       23      15      
15      23       24      15      
10      9       25      10      
25      9       24      25      
25      24       23      25      
6      4       1      6      
1      64       61      1      
1      61       6      1      
64      10       67      64      
64      67       61      64      
10      25       44      10      
10      44       67      10      
23      14       53      23      
25      23       44      25      
23      53       44      23      
28      8       27      28      
28      27       21      28      
27      8       5      27      
5      8       7      5      
21      27       20      21      
21      20       18      21      
18      20       33      18      
27      5       20      27      
33      20       30      33      
30      20       5      30      
13      14       15      13      
13      51       52      13      
52      14       13      52      
14      52       53      14      
52      76       53      52      
53      76       62      53      
76      83       62      76      
83      76       52      83      
70      56       38      70      
70      38       37      70      
52      51       75      52      
75      51       56      75      
70      75       56      70      
52      75       83      52      
37      86       70      37      
86      88       70      86      
75      88       83      75      
70      88       75      70      
61      60       6      61      
44      53       62      44      
62      73       44      62      
67      44       73      67      
73      77       71      73      
62      77       73      62      
60      78       31      60      
54      79       69      54      
77      81       71      77      
54      69       81      54      
71      81       69      71      
69      82       71      69      
71      82       73      71      
62      83       77      62      
60      61       84      60      
61      67       84      61      
73      84       67      73      
82      84       73      82      
85      80       78      85      
69      85       82      69      
69      79       85      69      
79      80       85      79      
81      86       54      81      
86      37       54      86      
82      87       84      82      
82      85       87      82      
78      87       85      78      
84      87       60      84      
60      87       78      60      
81      88       86      81      
77      88       81      77      
83      88       77      83      
7      6       5      7      
5      31       30      5      
5      6       60      5      
5      60       31      5      
31      32       30      31      
30      32       33      30      
33      32       18      33      
18      32       34      18      
36      37       38      36      
47      36       48      47      
47      54       36      47      
36      54       37      36      
57      58       48      57      
65      57       34      65      
32      65       34      32      
47      48       58      47      
57      65       58      57      
78      32       31      78      
78      65       32      78      
79      54       47      79      
47      58       79      47      
78      80       65      78      
65      80       58      65      
79      58       80      79      
