title = " tecplot file for process Mesh " 
variables = "x",  "y", "z", "cell_type" 
zone N = 105 E = 425 DATAPACKING = BLOCK,  VARLOCATION = ([4]=CELLCENTERED), ZONETYPE=FETETRAHEDRON 
4.238882e-03     
7.184389e-02     8.695869e-02     3.300659e-01     3.287299e-01     2.611884e-01     
4.106547e-01     2.149701e-01     3.059595e-01     1.635917e-01     2.714558e-01     
2.122078e-01     1.800400e-01     1.772043e-01     2.374924e-01     4.180293e-01     
4.238071e-01     3.549314e-01     4.152798e-01     4.108065e-01     3.300526e-01     
3.989734e-01     3.935449e-01     1.324135e-01     2.484531e-01     2.987331e-01     
3.415252e-01     2.873197e-01     3.297590e-01     1.216839e-01     2.351180e-01     
1.344816e-01     1.984868e-01     2.364088e-01     3.399738e-01     4.222639e-01     
4.116530e-01     6.172850e-02     2.018539e-01     3.053391e-01     2.004760e-01     
2.290357e-01     2.706521e-01     1.294959e-01     1.723560e-01     2.025246e-01     
1.379049e-01     3.195085e-01     2.637406e-01     3.198512e-01     3.027383e-01     
2.518770e-01     9.941892e-02     1.096724e-01     1.069165e-01     1.639466e-01     
-4.979227e-03     -8.172463e-03     1.936646e-01     9.507482e-02     3.490453e-02     
2.703795e-01     7.790079e-02     1.364820e-01     1.586663e-02     9.822835e-05     
-2.362282e-02     5.703769e-02     2.813883e-02     1.277205e-01     8.985814e-02     
4.498285e-02     -2.178522e-02     1.414686e-01     4.927584e-02     2.133663e-02     
9.976539e-02     2.520400e-01     2.167192e-01     2.046196e-01     5.146898e-02     
-6.652962e-02     2.905901e-02     -4.713288e-02     2.446918e-01     2.566635e-01     
3.301622e-01     3.696570e-01     3.144869e-01     -3.165824e-02     6.713383e-02     
1.228397e-01     9.027723e-02     1.201253e-01     1.152956e-01     1.064675e-01     
2.477107e-01     -1.980450e-02     2.567880e-02     -1.979535e-02     1.961222e-01     
6.810363e-02     -1.471830e-02     1.930056e-01     5.290087e-02     
-1.099696e-01     
-1.867797e-02     -1.016832e-01     2.392080e-01     1.113949e-01     1.672159e-01     
1.832712e-01     4.765546e-02     -4.787820e-03     3.041797e-01     3.182157e-01     
2.912886e-01     1.265987e-01     2.048148e-01     -5.458021e-02     3.852755e-01     
3.012151e-01     3.347354e-01     1.805055e-01     2.101569e-01     1.666425e-01     
2.116672e-01     9.888337e-02     -1.196046e-02     -5.069630e-02     2.226308e-01     
3.128120e-01     5.197691e-02     -6.153132e-02     2.295623e-01     3.358248e-01     
3.165263e-01     2.484177e-01     2.294673e-01     2.942431e-01     3.186511e-01     
3.547036e-01     4.238931e-02     2.480827e-01     2.955399e-01     -2.639549e-02     
6.272434e-02     -3.283915e-02     2.548939e-02     -9.142106e-03     1.135500e-01     
1.597689e-01     2.058578e-01     2.749316e-01     2.125020e-01     1.367728e-01     
3.252091e-01     2.734857e-01     3.529183e-01     4.095111e-01     3.293132e-01     
2.907968e-01     3.690869e-01     5.585659e-02     5.786111e-02     1.444082e-01     
1.656706e-01     8.039002e-03     -6.029281e-02     -9.070212e-02     6.465504e-02     
2.650584e-02     -2.981531e-02     2.280225e-02     1.688261e-01     2.508757e-01     
2.468048e-01     2.582000e-01     1.021592e-01     1.473833e-01     1.266201e-01     
6.200321e-02     4.633019e-02     1.858947e-01     1.458495e-01     -8.234295e-02     
-5.878848e-02     -4.029087e-02     5.267871e-02     4.125469e-02     1.297770e-01     
9.571431e-02     1.874916e-01     2.378622e-01     9.773667e-02     1.077926e-01     
2.268459e-01     -2.192406e-02     2.680161e-01     1.478539e-01     2.822351e-01     
1.607134e-01     2.079427e-01     1.989295e-01     2.005905e-01     2.600626e-01     
3.253004e-01     1.290992e-01     6.330788e-02     1.878158e-01     
-4.079644e-01     
-4.061719e-01     -3.493031e-01     -4.029951e-01     -4.307480e-01     -4.017895e-01     
-3.855319e-01     -4.087213e-01     -4.174105e-01     -3.137295e-01     -2.785619e-01     
-4.113362e-01     -3.488011e-01     -4.189208e-01     -4.126243e-01     -7.909091e-02     
-1.002472e-01     -1.412307e-01     -1.121779e-01     -2.246080e-02     -3.312094e-01     
-2.769245e-01     -2.980193e-01     -3.214455e-01     -2.742190e-01     -1.538955e-01     
-4.478111e-02     -3.161945e-01     -3.355425e-01     -3.603571e-01     -1.688089e-01     
-1.955454e-01     -2.258107e-01     -3.214489e-01     -3.321700e-01     -3.043166e-01     
-2.235773e-01     -3.359748e-01     -1.201743e-01     -2.014007e-01     -2.407255e-02     
-8.574390e-02     -1.065757e-01     -8.765528e-02     -1.929470e-01     -1.752547e-01     
-2.521278e-01     -5.911103e-02     4.993615e-03     8.662246e-02     9.029134e-03     
-7.536281e-02     -1.144926e-01     -8.150247e-02     -1.798795e-01     -1.825588e-02     
-1.560208e-01     -7.891721e-02     -2.773513e-01     -2.534519e-01     -3.333888e-01     
-2.411804e-01     -1.699825e-01     -2.511621e-01     -2.713885e-01     -2.319624e-01     
-1.452995e-01     -3.023907e-01     -5.066427e-02     -1.193353e-01     -2.640091e-01     
-3.452024e-02     -2.536128e-01     -1.128492e-02     -4.746935e-02     5.222241e-02     
8.092342e-02     3.777487e-02     -3.342174e-02     6.589751e-02     -5.766458e-02     
-2.919534e-02     5.922692e-02     2.068263e-02     -2.057946e-01     -3.154551e-01     
-2.305381e-01     -1.958169e-01     -2.683836e-01     -7.657097e-02     -1.710265e-01     
-1.857108e-01     -3.802190e-03     -3.925904e-02     6.105599e-02     3.643805e-02     
-1.137563e-01     2.382818e-02     -1.850126e-01     -9.002747e-02     -2.894500e-02     
-1.898935e-02     -1.549413e-01     1.082801e-01     -1.133932e-01     

0      
0      0      0      0      0      0      0      0      0      0      
0      0      0      0      0      0      0      0      0      0      
0      0      0      0      0      0      0      0      0      0      
0      0      0      0      0      0      0      0      0      0      
0      0      0      0      0      0      0      0      0      0      
0      0      0      0      0      0      0      0      0      0      
0      0      0      0      0      0      0      0      0      0      
0      0      0      0      0      0      0      0      0      0      
0      0      0      0      0      0      0      0      0      0      
0      0      0      0      0      0      0      0      0      0      
0      0      0      0      0      0      0      0      0      0      
0      0      0      0      0      0      0      0      0      0      
0      0      0      0      0      0      0      0      0      0      
0      0      0      0      0      0      0      0      0      0      
0      0      0      0      0      0      0      0      0      0      
0      0      0      0      0      0      0      0      0      0      
0      0      0      0      0      0      0      0      0      0      
0      0      0      0      0      0      0      0      0      0      
0      0      0      0      0      0      0      0      0      0      
0      0      0      0      0      0      0      0      0      0      
0      0      0      0      0      0      0      0      0      0      
0      0      0      0      0      0      0      0      0      0      
0      0      0      0      0      0      0      0      0      0      
0      0      0      0      1      1      1      1      1      1      
1      1      1      1      1      1      1      1      1      1      
1      1      1      1      1      1      1      1      1      1      
1      1      1      1      1      1      1      1      1      1      
1      1      1      1      1      1      1      1      1      1      
1      1      1      1      1      1      1      1      1      1      
1      1      1      1      1      1      1      1      1      1      
1      1      1      1      1      1      1      1      1      1      
1      1      1      1      1      1      1      1      1      1      
1      1      1      1      1      1      1      1      1      1      
1      1      1      1      1      1      1      1      1      1      
1      1      1      1      1      1      1      1      1      1      
1      1      1      1      1      1      1      1      1      1      
1      1      1      1      1      1      1      1      1      1      
1      1      1      1      1      1      1      1      1      1      
1      1      1      1      1      1      1      1      1      1      
1      1      1      1      1      1      1      1      1      1      
1      1      1      1      1      1      1      1      1      1      
1      1      1      1      1      1      1      1      1      1      
1      1      1      1      

5      21      4      7      
4      21      5      6      
6      4      21      34      
6      21      5      86      
7      5      21      23      
7      21      4      35      
8      25      24      59      
24      25      8      15      
8      15      25      28      
18      27      17      26      
17      27      18      16      
23      28      21      87      
21      28      23      5      
5      21      28      86      
5      28      8      86      
8      28      5      9      
9      8      28      15      
9      15      28      29      
8      28      25      59      
33      32      11      31      
11      32      33      10      
10      33      11      34      
10      32      33      71      
33      31      11      40      
33      32      31      39      
11      34      33      89      
10      33      34      30      
10      34      11      12      
21      34      4      35      
6      34      21      86      
14      34      13      30      
13      34      14      6      
6      13      34      86      
13      30      34      47      
33      30      10      71      
33      34      30      47      
31      39      32      54      
33      32      39      92      
33      39      31      26      
26      39      31      52      
33      26      31      40      
33      39      26      97      
33      40      11      89      
31      40      26      52      
33      26      40      89      
44      43      42      45      
42      43      44      41      
44      42      41      74      
45      42      44      46      
46      45      42      85      
46      44      45      63      
46      42      44      70      
43      42      45      85      
13      47      34      86      
30      47      13      61      
34      47      33      62      
30      33      47      71      
20      48      17      27      
17      48      20      19      
19      17      48      26      
27      48      17      26      
26      52      27      48      
27      52      26      18      
18      52      26      40      
39      52      26      48      
31      52      39      54      
48      52      27      49      
39      52      48      101      
26      39      48      97      
49      48      52      101      
53      54      39      94      
39      54      53      32      
32      53      39      92      
32      54      53      57      
39      54      52      56      
56      39      54      94      
56      52      39      101      
57      58      53      72      
53      58      57      54      
54      53      58      102      
46      59      45      85      
45      59      46      60      
60      45      59      64      
60      46      45      63      
60      59      46      47      
8      59      24      13      
25      59      28      85      
8      28      59      86      
13      8      59      86      
13      59      24      60      
13      59      47      86      
47      59      13      60      
60      13      47      61      
47      59      46      62      
60      47      46      91      
60      38      61      66      
61      38      60      13      
60      13      38      24      
60      61      47      91      
30      47      61      71      
59      62      47      86      
46      47      62      33      
46      62      59      85      
46      33      62      97      
46      47      33      92      
47      62      34      86      
33      34      62      89      
46      44      63      91      
60      46      63      91      
60      63      45      64      
63      64      60      68      
60      64      59      24      
24      60      64      68      
60      66      61      91      
38      66      60      68      
2      24      68      38      
68      24      2      3      
2      68      3      1      
24      68      38      60      
68      3      1      65      
63      68      60      66      
63      66      60      91      
44      70      42      74      
46      42      70      97      
46      70      44      91      
47      61      71      99      
33      71      32      92      
47      71      33      92      
53      72      58      102      
57      72      53      105      
70      74      75      94      
75      74      70      44      
44      75      74      69      
44      70      75      91      
42      74      70      79      
75      74      76      95      
76      74      75      69      
69      76      74      77      
69      75      76      90      
77      76      74      95      
77      74      69      93      
69      74      44      93      
75      69      44      91      
80      74      79      95      
79      74      80      78      
80      78      74      104      
70      42      79      97      
70      79      74      94      
69      83      82      84      
82      83      69      81      
69      81      83      93      
45      85      59      25      
62      85      46      87      
59      85      62      86      
28      85      59      86      
25      45      85      43      
34      86      62      21      
21      62      34      89      
21      86      62      87      
13      86      6      8      
85      86      28      87      
62      86      85      87      
8      86      6      5      
21      28      86      87      
21      87      62      88      
88      87      62      26      
21      88      62      89      
26      62      88      89      
26      87      62      97      
46      62      87      97      
26      62      89      33      
33      26      62      97      
21      89      34      35      
21      89      35      22      
22      35      21      7      
22      89      35      36      
36      89      35      37      
76      90      75      98      
69      75      90      91      
46      91      47      92      
63      91      44      69      
46      70      91      92      
47      91      61      99      
75      90      91      103      
63      91      69      67      
67      63      91      66      
75      91      70      105      
67      66      91      103      
57      92      32      71      
32      92      57      53      
53      92      57      105      
33      92      39      46      
39      92      53      70      
47      71      92      99      
46      92      39      70      
33      46      39      97      
46      70      39      97      
53      70      92      105      
53      39      70      94      
69      93      83      77      
75      70      94      105      
75      94      74      95      
74      94      79      95      
70      79      94      39      
53      94      70      105      
56      94      54      102      
39      94      56      101      
53      54      94      102      
74      95      80      104      
72      94      96      102      
96      94      72      95      
72      95      94      75      
72      75      94      105      
39      97      70      79      
39      97      79      48      
48      79      39      101      
48      97      79      51      
51      79      48      50      
92      99      71      57      
47      99      92      91      
91      99      92      105      
73      99      71      61      
71      99      73      57      
57      92      99      105      
39      94      101      79      
48      79      101      49      
72      94      102      53      
72      94      53      105      
75      103      91      105      
32      54      57      55      
70      91      92      105      
103      105      100      99      
100      105      103      75      
99      103      105      91      
99      105      100      57      
93      74       77      93      
77      83       93      77      
74      95       77      74      
80      95       104      80      
104      95       74      104      
52      54       56      52      
72      58       57      72      
79      95       80      79      
94      95       79      94      
96      95       94      96      
96      72       95      96      
75      95       72      75      
75      76       95      75      
77      95       76      77      
75      98       76      75      
94      101       56      94      
49      101       79      49      
52      101       49      52      
79      101       94      79      
56      101       52      56      
94      102       96      94      
96      102       72      96      
58      102       54      58      
72      102       58      72      
56      102       94      56      
54      102       56      54      
105      100       75      105      
75      72       105      75      
105      57       100      105      
105      72       57      105      
17      27       20      17      
19      20       48      19      
27      48       20      27      
49      48       27      49      
48      50       51      48      
27      52       49      27      
78      79       80      78      
50      79       51      50      
49      79       48      49      
48      79       50      48      
104      78       80      104      
1      2       3      1      
25      24       15      25      
25      59       24      25      
64      59       45      64      
59      64       24      59      
25      45       59      25      
1      3       65      1      
24      68       3      24      
24      3       2      24      
3      68       65      3      
65      68       1      65      
24      64       68      24      
68      64       63      68      
43      41       44      43      
45      43       44      45      
44      63       45      44      
63      64       45      63      
44      69       63      44      
74      44       41      74      
81      93       83      81      
93      81       69      93      
44      93       69      44      
74      93       44      74      
78      104       74      78      
19      17       20      19      
7      22       21      7      
7      21       23      7      
19      26       17      19      
9      5       28      9      
23      28       5      23      
15      28       25      15      
15      29       28      15      
29      15       9      29      
28      29       9      28      
43      42       41      43      
19      48       26      19      
42      74       41      42      
74      79       78      74      
42      79       74      42      
43      45       25      43      
28      85       25      28      
25      85       43      25      
43      85       42      43      
46      42       85      46      
23      87       28      23      
28      87       85      28      
88      87       21      88      
26      87       88      26      
85      87       46      85      
21      87       23      21      
21      89       88      21      
22      89       21      22      
88      89       26      88      
36      89       22      36      
46      97       42      46      
42      97       79      42      
48      97       26      48      
51      79       97      51      
51      97       48      51      
26      97       87      26      
87      97       46      87      
23      5       7      23      
4      5       6      4      
8      5       9      8      
6      5       8      6      
6      13       14      6      
8      13       6      8      
8      9       15      8      
8      24       13      8      
15      24       8      15      
14      13       30      14      
11      10       32      11      
12      34       10      12      
6      34       4      6      
14      34       6      14      
30      34       14      30      
10      34       30      10      
2      38       24      2      
24      38       13      24      
55      32       57      55      
55      57       54      55      
54      57       58      54      
38      61       13      38      
13      61       30      13      
2      68       38      2      
61      71       30      61      
30      71       10      30      
10      71       32      10      
61      73       71      61      
57      71       73      57      
1      68       2      1      
32      71       57      32      
7      5       4      7      
10      11       12      10      
16      17       18      16      
18      17       26      18      
18      27       16      18      
16      27       17      16      
31      11       32      31      
11      34       12      11      
34      35       4      34      
36      35       37      36      
36      22       35      36      
7      4       35      7      
7      35       22      7      
18      26       40      18      
31      40       11      31      
18      52       27      18      
40      52       18      40      
31      52       40      31      
31      32       54      31      
55      54       32      55      
89      40       26      89      
40      89       11      40      
11      89       34      11      
34      89       35      34      
37      89       36      37      
35      89       37      35      
31      54       52      31      
82      83       84      82      
83      82       81      83      
76      69       77      76      
83      69       84      83      
69      76       90      69      
90      91       69      90      
69      91       67      69      
75      90       98      75      
98      90       76      98      
73      99       57      73      
57      99       100      57      
66      103       91      66      
91      103       99      91      
100      99       103      100      
91      103       67      91      
103      91       90      103      
75      103       90      75      
75      100       103      75      
66      91       61      66      
61      99       73      61      
91      99       61      91      
69      83       77      69      
66      61       38      66      
68      66       38      68      
67      66       63      67      
66      68       63      66      
81      82       69      81      
69      82       84      69      
67      63       69      67      
66      67       103      66      
