title = " tecplot file for process Mesh " 
variables = "x",  "y", "z", "cell_type" 
zone N = 96 E = 409 DATAPACKING = BLOCK,  VARLOCATION = ([4]=CELLCENTERED), ZONETYPE=FETETRAHEDRON 
-4.174582e-01     
-5.000000e-01     -5.000000e-01     -4.300082e-01     -3.396938e-01     -3.382110e-01     
-3.000000e-01     -4.000000e-01     -2.000000e-01     -2.365493e-01     -2.344263e-01     
-5.000000e-01     -5.000000e-01     -5.000000e-01     -5.000000e-01     -4.186006e-01     
-5.000000e-01     -5.000000e-01     -5.000000e-01     -4.156823e-01     -5.000000e-01     
-1.366622e-01     -4.307540e-01     -5.000000e-01     -5.000000e-01     -4.156098e-01     
-2.440145e-01     -2.785733e-01     -3.335166e-01     -2.581887e-01     -3.279125e-01     
-1.544193e-01     -2.777619e-01     -2.641539e-01     -2.255856e-01     -1.760537e-01     
-3.963495e-01     -3.327696e-01     -2.333688e-01     -2.767641e-01     -7.554057e-02     
-1.212506e-01     -1.223302e-01     -1.658811e-01     -2.144215e-01     -3.590371e-01     
-3.889933e-01     -5.000000e-01     -7.705043e-02     -3.152366e-02     -3.011868e-02     
-8.154094e-02     -2.498834e-02     -5.000000e-01     -4.043221e-01     -5.000000e-01     
-5.000000e-01     -4.004549e-01     -5.000000e-01     -5.000000e-01     -3.099849e-01     
-3.306552e-01     -4.399391e-01     -5.000000e-01     -4.146932e-01     -1.378000e-01     
-1.602308e-01     -1.753473e-01     -3.003020e-02     -4.239135e-01     -4.309317e-01     
-9.392369e-02     -3.971841e-01     -1.917610e-01     -2.693311e-01     -2.204139e-01     
-3.423193e-01     -1.001541e-01     -8.326735e-02     -3.211086e-01     -1.260565e-01     
-2.117630e-01     -2.737528e-01     -2.507131e-01     -3.220927e-01     -1.673894e-01     
-1.717705e-01     -1.338303e-02     -3.237491e-02     1.429798e-02     -3.121240e-01     
-2.969554e-01     -3.408194e-01     -3.394680e-01     -8.962029e-02     -9.303104e-02     

3.398147e-01     
4.296004e-01     4.000000e-01     4.281086e-01     5.000000e-01     3.988175e-01     
5.000000e-01     5.000000e-01     5.000000e-01     5.000000e-01     4.102121e-01     
3.370320e-01     3.000000e-01     5.000000e-01     4.165810e-01     5.000000e-01     
5.000000e-01     4.153630e-01     5.000000e-01     5.000000e-01     5.000000e-01     
5.000000e-01     5.000000e-01     5.000000e-01     4.133538e-01     5.000000e-01     
5.000000e-01     4.213929e-01     5.000000e-01     5.000000e-01     5.000000e-01     
5.000000e-01     4.204167e-01     5.000000e-01     4.139068e-01     5.000000e-01     
4.195011e-01     5.000000e-01     5.000000e-01     4.185140e-01     5.000000e-01     
4.136295e-01     5.000000e-01     5.000000e-01     4.120167e-01     4.191515e-01     
4.187050e-01     3.282459e-01     5.000000e-01     5.000000e-01     4.102142e-01     
4.182232e-01     4.102369e-01     2.245709e-01     2.701661e-01     2.576814e-01     
2.381404e-01     2.998565e-01     3.369641e-01     3.244648e-01     3.360426e-01     
2.828105e-01     2.884780e-01     2.327756e-01     3.650961e-01     4.020358e-01     
3.679946e-01     3.995669e-01     4.114720e-01     3.424513e-01     3.814265e-01     
4.335922e-01     2.828877e-01     3.276938e-01     2.830495e-01     2.902802e-01     
3.405978e-01     3.514045e-01     2.713148e-01     3.307454e-01     3.102992e-01     
3.391044e-01     3.376574e-01     2.747366e-01     2.280878e-01     3.029457e-01     
3.008064e-01     4.055197e-01     2.839712e-01     2.937873e-01     2.574947e-01     
4.015117e-01     3.508811e-01     2.806057e-01     2.368886e-01     3.464819e-01     

5.000000e-01     
4.284208e-01     5.000000e-01     5.000000e-01     4.035385e-01     5.000000e-01     
5.000000e-01     5.000000e-01     5.000000e-01     4.148646e-01     5.000000e-01     
3.999136e-01     5.000000e-01     3.000000e-01     3.405117e-01     3.444298e-01     
4.000000e-01     1.377013e-01     2.000000e-01     1.486201e-01     1.000000e-01     
4.146223e-01     4.301135e-01     5.000000e-01     2.393141e-01     2.466143e-01     
1.336584e-01     9.443247e-02     9.819020e-02     5.144882e-02     1.944588e-01     
5.210656e-02     8.296501e-03     3.358211e-01     3.597295e-01     3.285029e-01     
3.926939e-01     2.939683e-01     2.408883e-01     2.902259e-01     1.469775e-01     
1.834156e-01     2.418487e-01     1.614207e-01     1.786558e-01     1.470897e-01     
2.950041e-01     2.849172e-01     -2.779790e-02     5.379623e-02     -6.092249e-03     
3.870999e-01     1.147421e-01     2.303012e-01     2.816459e-01     3.297193e-01     
1.120820e-01     1.138530e-01     5.410100e-02     1.753759e-01     4.050799e-01     
5.000000e-01     4.358492e-01     4.124802e-01     2.126462e-01     2.926683e-01     
4.160856e-01     8.044220e-02     2.095015e-01     3.416657e-01     9.096564e-02     
6.129500e-02     1.974936e-01     3.272298e-01     2.869459e-01     4.133242e-01     
2.686448e-01     1.141737e-01     6.506231e-02     1.606223e-01     -4.823775e-03     
2.885639e-03     6.608203e-02     1.239505e-01     4.117109e-01     2.095232e-01     
7.929981e-02     3.027416e-01     2.614740e-01     1.778511e-01     2.120598e-01     
2.065416e-01     3.336094e-02     3.418539e-01     1.690870e-01     2.370597e-01     


0      
0      0      0      0      0      0      0      0      0      0      
0      0      0      0      0      0      0      0      0      0      
0      0      0      0      0      0      0      0      0      0      
0      0      0      0      0      0      0      0      0      0      
0      0      0      0      0      0      0      0      0      0      
0      0      0      0      0      0      0      0      0      0      
0      0      0      0      0      0      0      0      0      0      
0      0      0      0      0      0      0      0      0      0      
0      0      0      0      0      0      0      0      0      0      
0      0      0      0      0      0      0      0      0      0      
0      0      0      0      0      0      0      0      0      0      
0      0      0      0      0      0      0      0      0      0      
0      0      0      0      0      0      0      0      0      0      
0      0      0      0      0      0      0      0      0      0      
0      0      0      0      0      0      0      0      0      0      
0      0      0      0      0      0      0      0      0      0      
0      0      0      0      0      0      0      0      0      0      
0      0      0      0      0      0      0      0      0      0      
0      0      0      0      0      0      0      0      0      0      
0      0      0      0      0      0      0      0      0      0      
0      0      0      0      0      0      0      0      0      0      
0      0      0      0      0      0      0      0      0      0      
0      0      0      0      0      0      0      0      0      0      
0      0      1      1      1      1      1      1      1      1      
1      1      1      1      1      1      1      1      1      1      
1      1      1      1      1      1      1      1      1      1      
1      1      1      1      1      1      1      1      1      1      
1      1      1      1      1      1      1      1      1      1      
1      1      1      1      1      1      1      1      1      1      
1      1      1      1      1      1      1      1      1      1      
1      1      1      1      1      1      1      1      1      1      
1      1      1      1      1      1      1      1      1      1      
1      1      1      1      1      1      1      1      1      1      
1      1      1      1      1      1      1      1      1      1      
1      1      1      1      1      1      1      1      1      1      
1      1      1      1      1      1      1      1      1      1      
1      1      1      1      1      1      1      1      1      1      
1      1      1      1      1      1      1      1      1      1      
1      1      1      1      1      1      1      1      1      1      
1      1      1      1      1      1      1      1      1      1      
1      1      1      1      1      1      1      1      

1      2      3      12      
3      2      1      4      
4      3      2      24      
4      2      1      37      
5      6      7      10      
7      6      5      8      
5      8      6      37      
9      10      11      22      
11      10      9      7      
7      11      10      6      
5      6      10      35      
11      10      6      35      
12      3      1      13      
1      12      13      63      
1      2      12      37      
14      15      16      47      
16      15      14      17      
17      16      15      37      
18      19      20      25      
20      19      18      21      
11      22      10      35      
23      4      8      37      
8      4      23      24      
23      24      4      2      
23      2      4      37      
23      24      2      17      
17      2      23      37      
19      25      26      20      
26      25      19      14      
14      26      25      47      
20      25      26      65      
18      25      20      65      
27      28      31      92      
31      28      27      29      
29      31      28      46      
34      35      10      36      
10      35      34      5      
5      35      34      40      
5      6      35      61      
6      11      35      61      
34      35      36      40      
10      36      35      22      
36      35      22      52      
5      37      16      23      
16      37      5      38      
38      16      37      47      
38      37      5      40      
4      37      1      6      
6      4      37      8      
6      37      1      61      
1      37      12      63      
2      12      37      15      
23      5      37      8      
23      37      16      17      
12      37      15      70      
2      15      37      17      
15      37      16      47      
5      37      6      61      
39      40      36      66      
36      40      39      34      
34      40      39      38      
36      40      35      66      
38      34      40      5      
38      40      39      31      
5      35      40      61      
37      40      38      47      
5      40      37      61      
31      40      39      92      
38      40      31      47      
41      42      43      69      
43      42      41      44      
44      43      42      45      
44      42      41      72      
43      45      39      66      
39      45      43      44      
44      39      45      27      
44      45      42      68      
43      42      45      66      
27      39      45      92      
27      45      44      68      
31      46      26      47      
26      46      31      20      
20      26      46      65      
20      46      31      29      
28      46      31      92      
40      47      37      61      
38      47      26      16      
26      47      38      31      
46      47      31      92      
26      47      46      65      
26      16      47      14      
15      37      47      70      
14      15      47      25      
25      47      26      65      
15      47      25      48      
48      47      25      65      
15      47      48      70      
35      52      36      66      
22      52      35      67      
54      55      48      73      
48      55      54      56      
56      48      55      70      
60      58      57      73      
57      58      60      59      
1      62      61      63      
61      62      1      6      
1      61      37      63      
11      35      61      67      
47      61      40      77      
37      61      47      70      
64      12      63      13      
63      12      64      56      
12      63      37      70      
37      63      61      70      
62      61      63      85      
48      65      60      73      
60      65      48      25      
25      60      65      18      
48      47      65      70      
60      65      18      71      
20      65      46      71      
46      65      47      92      
35      66      40      74      
39      40      66      45      
40      45      39      92      
40      66      45      86      
45      66      42      86      
43      42      66      69      
35      52      66      67      
35      61      67      74      
35      67      11      22      
35      67      66      74      
45      68      28      83      
28      68      45      27      
27      28      68      30      
27      45      28      92      
32      68      44      72      
44      68      32      27      
27      68      32      30      
42      68      45      86      
44      68      42      72      
30      68      32      33      
30      28      68      33      
28      68      33      83      
66      69      42      96      
41      42      69      53      
42      53      41      72      
42      69      53      78      
47      70      61      77      
61      70      63      94      
48      70      12      15      
12      70      48      56      
55      70      48      65      
65      70      47      77      
55      65      48      73      
55      70      65      77      
58      71      65      60      
65      71      58      46      
46      58      65      80      
46      71      58      93      
60      65      58      73      
41      72      53      50      
42      53      72      78      
41      44      72      32      
42      72      68      78      
32      72      41      50      
50      32      72      49      
50      72      53      51      
51      50      72      49      
51      72      53      78      
60      73      57      54      
58      73      65      80      
48      73      60      54      
55      65      73      77      
40      35      74      61      
40      74      66      86      
61      74      40      75      
61      74      75      76      
40      75      74      86      
40      61      75      77      
61      76      75      94      
61      74      76      67      
65      73      77      80      
40      47      77      92      
75      77      61      94      
40      77      75      92      
61      77      70      94      
47      65      77      92      
72      78      51      81      
42      69      78      96      
68      42      78      86      
68      78      72      81      
65      80      77      92      
46      58      80      93      
46      80      65      92      
51      81      78      79      
79      81      78      87      
28      83      33      93      
45      83      80      84      
80      83      45      28      
28      80      83      93      
28      45      80      92      
84      45      83      87      
84      80      45      86      
68      83      45      87      
61      63      85      94      
42      86      66      96      
75      86      40      92      
45      86      80      92      
84      86      45      87      
78      79      87      95      
78      87      81      68      
68      87      81      82      
82      68      87      83      
68      78      87      86      
78      87      86      95      
68      86      87      45      
75      77      80      92      
80      77      75      91      
28      92      80      46      
46      80      28      93      
31      27      92      39      
40      92      31      47      
40      45      92      86      
75      92      80      86      
61      76      94      85      
78      95      86      96      
86      96      42      78      
78      95      96      90      
95      96      90      89      
78      90      96      69      
89      96      90      69      
69      89      96      88      
4      3       1      4      
8      6       7      8      
7      11       9      7      
7      6       11      7      
3      12       13      3      
1      3       13      1      
3      2       12      3      
15      17       14      15      
18      19       21      18      
8      24       4      8      
4      24       3      4      
3      24       2      3      
2      24       17      2      
25      14       19      25      
25      19       18      25      
6      4       1      6      
2      15       12      2      
2      17       15      2      
8      4       6      8      
15      14       25      15      
15      25       48      15      
56      48       54      56      
60      59       57      60      
1      62       6      1      
64      12       56      64      
13      12       64      13      
25      60       48      25      
25      18       60      25      
56      12       48      56      
15      48       12      15      
54      48       60      54      
60      57       54      60      
5      8       7      5      
10      7       9      10      
5      7       10      5      
17      16       14      17      
19      20       21      19      
10      9       22      10      
24      8       23      24      
24      23       17      24      
14      26       19      14      
19      26       20      19      
29      31       27      29      
5      10       34      5      
10      36       34      10      
10      22       36      10      
38      16       5      38      
23      5       16      23      
17      23       16      17      
23      8       5      23      
34      36       39      34      
38      34       39      38      
5      34       38      5      
38      39       31      38      
44      43       41      44      
44      39       43      44      
27      39       44      27      
20      26       31      20      
29      20       31      29      
31      26       38      31      
26      16       38      26      
14      16       26      14      
27      44       32      27      
30      27       32      30      
44      41       32      44      
50      32       41      50      
49      32       50      49      
27      31       39      27      
22      9       11      22      
22      52       36      22      
41      53       50      41      
36      66       39      36      
39      66       43      39      
36      52       66      36      
11      67       22      11      
22      67       52      22      
67      66       52      67      
66      69       43      66      
41      69       53      41      
41      43       69      41      
96      95       89      96      
96      69       66      96      
88      96       89      88      
96      88       69      96      
49      50       51      49      
50      53       51      50      
78      51       53      78      
51      78       79      51      
69      78       53      69      
69      88       89      69      
69      89       90      69      
79      95       87      79      
95      79       78      95      
90      95       78      90      
95      90       89      95      
90      78       69      90      
54      55       56      54      
62      61       6      62      
11      6       61      11      
12      63       56      12      
56      63       64      56      
1      63       62      1      
13      63       1      13      
64      63       13      64      
61      67       11      61      
56      55       70      56      
12      70       63      12      
56      70       12      56      
58      73       57      58      
55      54       73      55      
57      73       54      57      
75      74       76      75      
66      67       74      66      
73      77       55      73      
55      77       70      55      
80      77       73      80      
80      73       58      80      
61      62       85      61      
61      85       76      61      
63      85       62      63      
86      74       75      86      
86      80       84      86      
67      76       74      67      
87      86       84      87      
77      80       91      77      
91      80       75      91      
77      91       75      77      
75      80       86      75      
75      94       77      75      
76      94       75      76      
85      94       76      85      
63      94       85      63      
63      70       94      63      
77      94       70      77      
87      95       86      87      
86      96       66      86      
95      96       86      95      
66      74       86      66      
76      67       61      76      
79      87       81      79      
81      87       82      81      
21      20       18      21      
27      28       29      27      
30      28       27      30      
32      33       30      32      
28      30       33      28      
20      29       46      20      
29      28       46      29      
59      58       57      59      
58      59       60      58      
20      65       18      20      
32      68       33      32      
71      58       60      71      
65      71       18      65      
18      71       60      18      
46      71       20      46      
32      72       68      32      
51      72       49      51      
72      32       49      72      
81      51       79      81      
51      81       72      51      
68      81       82      68      
68      83       33      68      
68      82       83      68      
80      83       84      80      
87      83       82      87      
28      93       46      28      
80      93       83      80      
58      93       80      58      
46      93       71      46      
71      93       58      71      
28      33       93      28      
83      93       33      83      
20      71       65      20      
68      72       81      68      
83      87       84      83      
