title = " tecplot file for process Mesh " 
variables = "x",  "y", "z", "cell_type" 
zone N = 90 E = 390 DATAPACKING = BLOCK,  VARLOCATION = ([4]=CELLCENTERED), ZONETYPE=FETETRAHEDRON 
4.128369e-01     
5.000000e-01     5.000000e-01     4.145841e-01     5.000000e-01     4.304725e-01     
5.000000e-01     5.000000e-01     4.138911e-01     5.000000e-01     5.000000e-01     
4.230521e-01     5.000000e-01     5.000000e-01     5.000000e-01     4.303613e-01     
5.000000e-01     5.000000e-01     5.000000e-01     5.000000e-01     5.000000e-01     
4.198149e-01     5.000000e-01     4.235157e-01     5.000000e-01     4.224965e-01     
5.000000e-01     5.000000e-01     4.208522e-01     4.101700e-01     4.187492e-01     
4.039898e-01     5.000000e-01     4.068689e-01     2.284843e-01     2.583683e-01     
3.209482e-01     2.256724e-01     3.351150e-01     3.230947e-01     2.977917e-01     
4.206741e-01     5.000000e-01     3.567247e-01     3.657682e-01     4.191087e-01     
4.139700e-01     4.112549e-01     1.180346e-01     1.961318e-01     1.312557e-01     
3.797276e-01     3.245082e-01     3.697653e-01     3.150052e-01     2.825846e-01     
3.600535e-01     3.348320e-01     3.281580e-01     3.203314e-01     2.925369e-01     
3.377007e-01     2.553297e-01     3.571105e-01     2.833963e-01     2.888664e-01     
2.496232e-01     3.412021e-01     2.964894e-01     3.328683e-01     3.409599e-01     
4.014865e-01     3.342766e-01     4.192457e-01     2.447976e-01     1.861441e-01     
2.109819e-01     3.339947e-01     1.972600e-01     2.742418e-01     3.063264e-01     
2.590701e-01     2.110073e-01     2.333877e-01     3.612759e-01     2.739562e-01     
1.859918e-01     1.954645e-01     2.533067e-01     2.626539e-01     
-5.000000e-01     
-5.000000e-01     -4.161818e-01     -5.000000e-01     -5.000000e-01     -5.000000e-01     
-5.000000e-01     -4.188956e-01     -5.000000e-01     -4.181984e-01     -2.691570e-01     
-2.872865e-01     -2.533145e-01     -3.393881e-01     -1.785461e-01     -2.840612e-01     
-2.461096e-01     -3.369169e-01     -3.266578e-01     7.489395e-03     -8.318273e-02     
2.405180e-02     1.309113e-01     -3.650669e-01     -4.523982e-02     -9.524623e-02     
-8.969532e-02     -1.508035e-01     -3.599188e-01     -1.171414e-01     -5.134342e-02     
-2.077479e-01     -2.263306e-01     7.421862e-03     -5.000000e-01     -4.084011e-01     
-5.000000e-01     -5.000000e-01     -5.000000e-01     -5.000000e-01     -4.003213e-01     
-1.948771e-01     -1.635182e-01     -4.135243e-01     -4.140831e-01     -2.898473e-01     
-1.252840e-01     1.827779e-02     -5.000000e-01     -4.097718e-01     -4.017245e-01     
-4.308062e-01     -3.075439e-01     6.457785e-02     -5.510661e-02     -3.715318e-01     
-2.042335e-01     -1.229664e-01     2.526912e-02     -4.705125e-02     -2.065641e-01     
-3.077736e-01     -2.281132e-01     -3.383362e-01     -3.924305e-01     -3.071629e-01     
-2.917544e-01     -2.154933e-01     -1.408985e-01     -1.236659e-01     -5.901176e-02     
-3.556295e-02     -2.652752e-01     -3.621987e-01     -2.788453e-01     -1.625679e-01     
-2.649112e-01     -2.938918e-01     -3.455042e-01     -1.160611e-01     -9.604617e-02     
-2.300906e-01     -1.631262e-01     -8.348887e-02     -3.404361e-01     -3.265220e-01     
-1.634368e-01     -7.660485e-02     -1.102908e-01     -7.572686e-02     
2.393573e-01     
2.000000e-01     1.469166e-01     1.376871e-01     1.000000e-01     5.176183e-02     
0.000000e+00     4.866508e-02     -3.301221e-02     -4.950366e-02     4.352172e-02     
1.420023e-03     -3.881931e-02     -4.423402e-04     3.562174e-02     8.771642e-02     
1.256384e-01     9.398918e-02     1.903806e-01     4.679255e-02     -1.924155e-02     
-1.261730e-02     5.067157e-02     4.740398e-02     1.479346e-01     1.205610e-01     
7.055627e-02     1.431922e-01     1.437621e-01     2.897882e-02     -6.902415e-02     
1.673827e-01     2.333177e-01     1.132617e-01     -1.033622e-03     -5.940573e-02     
-6.456296e-02     -1.126206e-01     5.405715e-02     1.755449e-01     1.139868e-01     
-2.819864e-02     -7.452855e-02     -1.728220e-02     2.105416e-01     1.990905e-01     
2.072431e-01     2.082410e-01     -5.564519e-02     1.528624e-02     -8.771877e-02     
9.123681e-02     -6.537041e-02     5.229300e-02     1.728620e-01     2.473656e-02     
6.872372e-02     -8.873213e-02     -5.044899e-02     5.612593e-02     1.600270e-01     
1.200665e-01     5.693221e-02     2.531233e-01     1.984327e-01     2.084386e-01     
-1.147283e-02     -7.383668e-02     9.874390e-03     1.101786e-01     -2.858808e-02     
4.232569e-02     2.536369e-01     2.186620e-01     1.350745e-01     1.287147e-01     
2.316646e-01     2.800556e-02     -7.050786e-02     2.222330e-01     3.021365e-01     
-6.724497e-02     -5.282582e-02     3.612803e-02     1.805792e-01     8.454107e-02     
2.169463e-01     2.294396e-01     1.392663e-01     -3.868051e-02     

0      
0      0      0      0      0      0      0      0      0      0      
0      0      0      0      0      0      0      0      0      0      
0      0      0      0      0      0      0      0      0      0      
0      0      0      0      0      0      0      0      0      0      
0      0      0      0      0      0      0      0      0      0      
0      0      0      0      0      0      0      0      0      0      
0      0      0      0      0      0      0      0      0      0      
0      0      0      0      0      0      0      0      0      0      
0      0      0      0      0      0      0      0      0      0      
0      0      0      0      0      0      0      0      0      0      
0      0      0      0      0      0      0      0      0      0      
0      0      0      0      0      0      0      0      0      0      
0      0      0      0      0      0      0      0      0      0      
0      0      0      0      0      0      0      0      0      0      
0      0      0      0      0      0      0      0      0      0      
0      0      0      0      0      0      0      0      0      0      
0      0      0      0      0      0      0      0      0      0      
0      0      0      0      0      0      0      0      0      0      
0      0      0      0      0      0      0      0      0      0      
0      0      0      0      0      0      0      0      0      0      
0      0      0      0      0      0      0      0      0      0      
0      0      0      0      0      0      0      0      0      0      
0      0      0      0      0      0      0      0      0      0      
0      0      0      1      1      1      1      1      1      1      
1      1      1      1      1      1      1      1      1      1      
1      1      1      1      1      1      1      1      1      1      
1      1      1      1      1      1      1      1      1      1      
1      1      1      1      1      1      1      1      1      1      
1      1      1      1      1      1      1      1      1      1      
1      1      1      1      1      1      1      1      1      1      
1      1      1      1      1      1      1      1      1      1      
1      1      1      1      1      1      1      1      1      1      
1      1      1      1      1      1      1      1      1      1      
1      1      1      1      1      1      1      1      1      1      
1      1      1      1      1      1      1      1      1      1      
1      1      1      1      1      1      1      1      1      1      
1      1      1      1      1      1      1      1      1      1      
1      1      1      1      1      1      1      1      1      1      
1      1      1      1      1      1      1      1      1      

4      2      3      5      
3      2      4      1      
1      4      3      45      
4      5      3      52      
6      7      8      9      
8      7      6      5      
5      6      8      52      
9      8      6      24      
9      7      8      10      
10      8      9      24      
11      12      13      42      
13      12      11      14      
14      12      11      24      
15      16      11      42      
11      16      15      17      
17      11      16      18      
17      16      15      57      
18      11      16      24      
18      16      17      19      
19      18      16      29      
19      16      17      46      
18      24      8      14      
8      24      18      3      
3      8      24      52      
3      24      18      29      
14      24      8      10      
18      24      14      11      
11      24      12      16      
12      16      24      78      
12      11      16      42      
10      24      9      44      
6      24      8      52      
9      24      6      44      
18      24      16      29      
25      26      27      34      
27      26      25      28      
28      27      26      15      
28      26      25      47      
27      26      15      30      
28      15      26      57      
24      29      3      52      
18      3      29      19      
16      29      24      62      
3      29      19      74      
19      29      16      46      
27      30      21      72      
21      30      27      15      
15      21      30      42      
26      30      27      72      
15      30      26      57      
17      32      33      46      
33      32      17      28      
28      32      17      57      
25      34      27      20      
20      34      27      72      
26      34      25      48      
27      34      26      72      
35      36      37      44      
37      36      35      38      
38      36      35      51      
30      42      31      58      
31      42      30      21      
21      30      31      72      
15      43      42      13      
42      43      15      21      
15      42      30      57      
15      13      42      11      
35      44      37      39      
39      35      44      56      
39      44      37      9      
36      44      35      56      
39      44      9      6      
39      44      6      52      
6      44      24      52      
45      1      4      40      
4      45      40      52      
3      45      4      52      
1      45      3      74      
17      46      33      19      
17      32      46      16      
32      46      16      62      
17      32      16      57      
16      46      29      62      
19      29      46      74      
25      47      26      48      
28      26      47      32      
26      32      28      57      
26      47      32      70      
26      34      48      55      
26      48      47      55      
35      38      51      49      
35      51      36      50      
35      51      50      49      
36      50      51      79      
36      35      50      56      
40      52      45      41      
4      52      40      39      
41      52      45      85      
40      41      45      65      
40      52      41      39      
29      52      24      62      
3      52      29      45      
3      8      52      5      
5      6      52      4      
6      52      4      39      
44      52      39      56      
24      52      44      56      
39      52      41      56      
20      22      54      72      
54      22      20      23      
34      55      26      60      
26      55      47      70      
52      56      24      62      
44      24      56      78      
41      56      52      62      
44      56      36      53      
36      56      50      79      
44      56      53      78      
36      53      56      67      
26      57      30      70      
28      15      57      17      
26      32      57      70      
42      57      12      78      
12      57      42      16      
16      12      57      78      
16      57      42      15      
30      57      42      69      
16      57      32      62      
30      42      58      69      
30      58      31      71      
26      34      60      72      
26      60      55      70      
61      62      63      75      
63      62      61      57      
57      63      62      78      
57      61      63      70      
57      62      61      32      
32      46      62      73      
29      62      46      85      
57      62      16      78      
32      61      57      70      
32      62      61      73      
16      62      24      78      
52      62      29      85      
45      65      41      85      
56      67      53      78      
36      67      56      79      
30      69      58      71      
42      58      69      68      
58      69      68      82      
42      68      69      78      
42      69      57      78      
30      57      69      70      
63      70      61      89      
57      70      63      69      
69      70      63      84      
57      69      63      78      
30      70      69      60      
60      70      69      84      
30      60      69      71      
30      70      60      26      
32      61      70      47      
61      70      47      80      
47      70      55      80      
55      70      60      89      
58      71      69      90      
69      71      60      90      
30      60      71      72      
30      71      31      72      
60      72      54      59      
54      72      60      34      
34      54      72      20      
59      72      54      22      
22      59      72      31      
60      72      59      71      
59      71      72      31      
59      60      71      90      
30      60      72      26      
21      72      31      22      
21      72      22      20      
20      21      72      27      
61      73      62      66      
66      73      62      85      
61      66      62      75      
46      62      73      85      
29      74      3      45      
29      74      45      85      
29      46      74      85      
61      66      75      77      
63      61      75      76      
63      75      62      86      
61      76      63      89      
61      75      76      77      
77      76      61      87      
67      78      56      86      
53      78      67      82      
12      78      53      68      
53      78      12      44      
44      78      12      24      
24      56      78      62      
56      78      62      86      
62      78      63      86      
63      78      69      82      
68      78      53      82      
12      78      68      42      
70      80      61      89      
55      47      80      81      
55      80      70      89      
69      82      58      83      
68      82      69      78      
69      82      83      63      
58      69      83      90      
82      83      63      67      
63      82      67      78      
83      69      63      84      
67      63      78      86      
60      70      84      89      
60      84      69      90      
83      69      84      90      
74      85      46      64      
64      74      85      45      
64      85      46      73      
66      73      85      64      
64      85      66      65      
45      65      85      64      
52      85      41      62      
45      85      52      29      
56      86      62      41      
61      87      76      89      
88      89      87      80      
87      89      88      76      
80      89      87      61      
70      89      63      84      
63      89      76      84      
2      1       4      2      
2      4       5      2      
5      4       6      5      
5      6       7      5      
7      6       9      7      
4      1       40      4      
6      4       39      6      
39      4       40      39      
9      6       39      9      
37      9       39      37      
39      35       37      39      
38      37       35      38      
38      35       49      38      
3      2       5      3      
3      5       8      3      
8      5       7      8      
8      7       10      8      
3      8       18      3      
3      18       19      3      
18      8       14      18      
14      8       10      14      
19      18       17      19      
19      17       33      19      
28      33       17      28      
18      14       11      18      
18      11       17      18      
14      13       11      14      
11      13       15      11      
15      13       43      15      
17      11       15      17      
28      17       15      28      
28      15       27      28      
28      27       25      28      
15      43       21      15      
15      21       27      15      
20      25       27      20      
27      21       20      27      
49      51       38      49      
20      22       23      20      
22      54       23      22      
22      59       54      22      
58      71       31      58      
31      71       59      31      
71      90       59      71      
58      90       71      58      
58      83       90      58      
20      21       22      20      
21      31       22      21      
31      59       22      31      
7      9       10      7      
12      13       14      12      
14      24       12      14      
10      24       14      10      
36      37       38      36      
21      42       31      21      
43      42       21      43      
13      42       43      13      
12      42       13      12      
36      44       37      36      
44      9       37      44      
12      24       44      12      
44      24       10      44      
9      44       10      9      
38      51       36      38      
44      53       12      44      
53      44       36      53      
42      58       31      42      
67      53       36      67      
42      68       58      42      
12      68       42      12      
12      53       68      12      
36      51       79      36      
67      36       79      67      
68      82       58      68      
82      83       58      82      
53      82       68      53      
67      83       82      67      
82      53       67      82      
34      25       20      34      
25      34       48      25      
25      48       47      25      
20      23       54      20      
20      54       34      20      
55      48       34      55      
48      55       47      48      
34      60       55      34      
59      60       54      59      
34      54       60      34      
55      80       81      55      
88      89       76      88      
89      88       80      89      
55      89       80      55      
89      84       76      89      
55      60       89      55      
84      89       60      84      
47      55       81      47      
84      90       83      84      
90      84       60      90      
59      90       60      59      
39      40       41      39      
49      35       50      49      
50      51       49      50      
56      39       41      56      
39      56       35      39      
35      56       50      35      
65      41       40      65      
66      75       62      66      
63      75       76      63      
76      75       77      76      
77      75       66      77      
50      79       51      50      
56      79       50      56      
67      79       56      67      
83      67       63      83      
76      84       63      76      
83      63       84      83      
62      85       66      62      
65      85       41      65      
66      85       65      66      
86      56       41      86      
62      86       41      62      
63      86       75      63      
75      86       62      75      
63      67       86      63      
56      86       67      56      
41      85       62      41      
77      87       76      77      
87      88       76      87      
64      65       45      64      
45      65       40      45      
64      66       65      64      
1      2       3      1      
32      33       28      32      
40      1       45      40      
33      46       19      33      
32      46       33      32      
28      47       32      28      
25      47       28      25      
32      47       61      32      
61      73       32      61      
66      73       61      66      
32      73       46      32      
46      73       64      46      
64      73       66      64      
45      74       64      45      
64      74       46      64      
46      74       19      46      
19      74       3      19      
1      74       45      1      
61      77       66      61      
47      80       61      47      
47      81       80      47      
61      87       77      61      
61      80       87      61      
88      87       80      88      
74      1       3      74      
