title = " tecplot file for process Mesh " 
variables = "x",  "y", "z", "cell_type" 
zone N = 87 E = 379 DATAPACKING = BLOCK,  VARLOCATION = ([4]=CELLCENTERED), ZONETYPE=FETETRAHEDRON 
-5.000000e-01     
-5.000000e-01     -4.166611e-01     -5.000000e-01     -5.000000e-01     -5.000000e-01     
-5.000000e-01     -4.156823e-01     -5.000000e-01     -4.156098e-01     -5.000000e-01     
-4.153430e-01     -5.000000e-01     -2.440145e-01     -2.785733e-01     -3.335166e-01     
-2.581887e-01     -3.279125e-01     -2.420311e-01     -2.777619e-01     -3.330660e-01     
-1.544193e-01     -3.327696e-01     -2.767641e-01     -2.333688e-01     -3.610812e-01     
-7.554057e-02     -1.212506e-01     -1.223302e-01     -1.658811e-01     -2.144215e-01     
-3.586965e-01     -3.590371e-01     -3.889933e-01     -7.705043e-02     -3.152366e-02     
-3.011868e-02     -1.286284e-01     -1.544154e-01     -2.498834e-02     -5.000000e-01     
-4.149223e-01     -5.000000e-01     -5.000000e-01     -5.000000e-01     -5.000000e-01     
-4.123832e-01     -4.051338e-01     -5.000000e-01     -4.158854e-01     -5.000000e-01     
-4.093138e-01     -5.000000e-01     -4.004549e-01     -5.000000e-01     -5.000000e-01     
-4.146932e-01     -5.000000e-01     -4.151901e-01     -1.753473e-01     -4.048229e-01     
-4.099830e-01     -2.885194e-01     -4.107858e-01     -4.309317e-01     -9.392369e-02     
-3.379306e-01     -4.323981e-01     -3.699585e-01     -5.000000e-01     -2.117630e-01     
-3.285452e-01     -3.423193e-01     -1.001541e-01     -3.142911e-01     -3.211086e-01     
-3.190908e-01     -1.260565e-01     -2.737528e-01     -2.507131e-01     -1.673894e-01     
-1.717705e-01     -2.969554e-01     -3.257467e-01     -2.873063e-01     -3.408194e-01     
-2.597987e-01     
4.312377e-01     
5.000000e-01     5.000000e-01     4.147818e-01     5.000000e-01     4.153630e-01     
5.000000e-01     5.000000e-01     4.133538e-01     5.000000e-01     5.000000e-01     
5.000000e-01     5.000000e-01     5.000000e-01     4.213929e-01     5.000000e-01     
5.000000e-01     5.000000e-01     5.000000e-01     4.204167e-01     5.000000e-01     
5.000000e-01     5.000000e-01     4.185140e-01     5.000000e-01     4.217566e-01     
5.000000e-01     4.136295e-01     5.000000e-01     5.000000e-01     4.120167e-01     
4.200801e-01     4.191515e-01     4.187050e-01     5.000000e-01     5.000000e-01     
4.102142e-01     4.004149e-01     5.000000e-01     4.102369e-01     6.228643e-02     
3.543992e-02     5.240016e-02     -8.366834e-03     1.440880e-01     2.381404e-01     
1.782931e-01     1.096455e-01     1.225622e-01     1.032302e-01     3.227500e-01     
2.609036e-01     2.320153e-01     2.998565e-01     3.369641e-01     3.244648e-01     
3.650961e-01     4.105989e-01     4.189232e-01     3.995669e-01     1.368977e-01     
3.438501e-01     3.111055e-01     2.044487e-01     3.814265e-01     4.335922e-01     
1.047620e-01     5.492080e-02     -1.035602e-02     -6.024899e-03     3.391044e-01     
2.760969e-01     3.405978e-01     3.514045e-01     1.924633e-01     3.307454e-01     
1.960923e-01     3.102992e-01     3.376574e-01     2.747366e-01     3.029457e-01     
3.008064e-01     4.015117e-01     7.434720e-02     1.837134e-01     3.508811e-01     
2.875741e-01     
5.178556e-02     
0.000000e+00     5.054534e-02     -3.296074e-02     1.000000e-01     1.377013e-01     
2.000000e-01     1.486201e-01     2.393141e-01     2.466143e-01     3.000000e-01     
-4.747242e-02     -1.000000e-01     1.336584e-01     9.443247e-02     9.819020e-02     
5.144882e-02     1.944588e-01     -3.069292e-02     8.296501e-03     4.133603e-03     
5.210656e-02     2.939683e-01     2.902259e-01     2.408883e-01     5.095638e-02     
1.469775e-01     1.834156e-01     2.418487e-01     1.614207e-01     1.786558e-01     
-4.478493e-02     1.470897e-01     2.950041e-01     -2.779790e-02     5.379623e-02     
-6.092249e-03     -1.518372e-02     -6.985983e-02     1.147421e-01     2.751135e-02     
7.123904e-02     1.312398e-01     5.496594e-02     6.041773e-02     1.120820e-01     
1.091536e-01     1.139045e-02     -5.375772e-02     1.741451e-01     -6.432774e-02     
-5.895842e-02     -7.773377e-04     1.138530e-01     5.410100e-02     1.753759e-01     
2.126462e-01     -1.337883e-01     -1.121461e-01     8.044220e-02     -8.658382e-02     
3.187424e-03     -6.285127e-02     1.765416e-02     9.096564e-02     6.129500e-02     
9.305486e-02     -5.669591e-02     -4.206277e-02     -4.723589e-02     2.885639e-03     
3.372893e-02     2.686448e-01     1.141737e-01     1.499436e-01     1.606223e-01     
-4.586274e-02     -4.823775e-03     6.608203e-02     1.239505e-01     2.095232e-01     
7.929981e-02     2.065416e-01     1.258007e-02     5.126215e-02     3.336094e-02     
1.660503e-02     

0      
0      0      0      0      0      0      0      0      0      0      
0      0      0      0      0      0      0      0      0      0      
0      0      0      0      0      0      0      0      0      0      
0      0      0      0      0      0      0      0      0      0      
0      0      0      0      0      0      0      0      0      0      
0      0      0      0      0      0      0      0      0      0      
0      0      0      0      0      0      0      0      0      0      
0      0      0      0      0      0      0      0      0      0      
0      0      0      0      0      0      0      0      0      0      
0      0      0      0      0      0      0      0      0      0      
0      0      0      0      0      0      0      0      0      0      
0      0      0      0      0      0      0      0      0      0      
0      0      0      0      0      0      0      0      0      0      
0      0      0      0      0      0      0      0      0      0      
0      0      0      0      0      0      0      0      0      0      
0      0      0      0      0      0      0      0      0      0      
0      0      0      0      0      0      0      0      0      0      
0      0      0      0      0      0      0      0      0      0      
0      0      0      0      0      0      0      0      0      0      
0      0      0      0      0      0      0      0      0      0      
0      0      0      0      0      0      0      0      0      0      
0      0      0      0      0      0      0      0      0      0      
0      0      0      0      0      0      0      0      0      0      
0      0      1      1      1      1      1      1      1      1      
1      1      1      1      1      1      1      1      1      1      
1      1      1      1      1      1      1      1      1      1      
1      1      1      1      1      1      1      1      1      1      
1      1      1      1      1      1      1      1      1      1      
1      1      1      1      1      1      1      1      1      1      
1      1      1      1      1      1      1      1      1      1      
1      1      1      1      1      1      1      1      1      1      
1      1      1      1      1      1      1      1      1      1      
1      1      1      1      1      1      1      1      1      1      
1      1      1      1      1      1      1      1      1      1      
1      1      1      1      1      1      1      1      1      1      
1      1      1      1      1      1      1      1      1      1      
1      1      1      1      1      1      1      1      1      1      
1      1      1      1      1      1      1      1      

1      2      3      5      
3      2      1      4      
4      3      2      12      
4      1      3      26      
1      5      3      65      
6      7      8      9      
8      7      6      5      
6      8      5      65      
7      9      10      8      
10      9      7      11      
11      10      9      34      
8      9      10      57      
6      9      8      57      
4      12      2      13      
3      12      4      26      
13      4      12      59      
14      15      16      18      
16      15      14      17      
17      16      15      26      
17      15      14      60      
14      15      18      83      
16      18      15      33      
17      20      21      26      
21      20      17      19      
19      20      17      22      
22      20      17      60      
19      20      22      38      
18      24      25      83      
25      24      18      23      
23      24      18      34      
4      26      12      32      
3      12      26      21      
12      26      21      32      
3      21      26      16      
3      26      1      65      
4      1      26      62      
16      26      8      33      
8      26      16      3      
3      8      26      65      
21      26      16      17      
15      26      16      33      
17      26      15      20      
15      20      26      86      
15      17      20      60      
21      26      20      32      
30      29      28      31      
28      29      30      27      
30      28      27      66      
30      25      31      14      
31      25      30      29      
30      31      28      60      
14      25      31      83      
14      31      30      60      
20      32      26      86      
4      26      32      62      
4      32      12      59      
18      33      10      34      
10      33      18      8      
8      10      33      57      
8      33      18      16      
8      33      26      65      
26      33      15      86      
15      33      18      83      
34      10      18      23      
33      34      18      83      
10      34      33      57      
9      34      10      57      
35      38      22      66      
22      38      35      39      
39      22      38      19      
22      38      20      60      
41      42      43      45      
43      42      41      44      
44      42      41      70      
45      41      42      48      
45      48      47      64      
47      48      45      42      
42      47      48      67      
42      45      47      50      
41      48      49      68      
49      48      41      45      
45      49      48      64      
42      48      41      68      
42      50      47      67      
46      54      55      53      
55      54      46      56      
56      55      54      65      
53      54      55      62      
46      54      53      64      
56      57      6      65      
6      57      56      9      
6      57      8      65      
8      57      33      65      
33      57      34      83      
4      58      59      13      
59      58      4      51      
4      59      51      62      
4      32      59      62      
20      60      38      71      
22      38      60      66      
31      60      15      79      
15      60      31      14      
14      31      15      83      
22      60      30      66      
30      60      22      14      
14      60      22      17      
28      60      31      81      
30      60      28      66      
15      60      20      79      
51      62      55      4      
55      62      51      53      
53      62      51      52      
52      62      51      59      
53      62      52      64      
52      62      59      32      
32      52      62      63      
4      62      55      1      
52      62      63      72      
32      63      62      86      
26      32      62      86      
55      1      62      65      
26      62      1      65      
61      64      52      77      
52      64      61      53      
53      64      61      49      
49      53      64      45      
49      64      61      48      
48      61      49      68      
48      64      61      77      
53      64      45      46      
62      64      53      54      
52      64      62      72      
54      64      46      47      
47      54      64      72      
47      64      46      45      
47      64      48      85      
55      65      62      54      
54      65      62      86      
55      1      65      6      
62      65      26      86      
54      65      57      56      
57      65      54      33      
33      54      57      76      
33      65      54      86      
56      65      6      55      
26      65      33      86      
3      8      65      5      
5      65      1      6      
38      60      66      78      
27      66      40      36      
40      66      27      28      
28      40      66      74      
27      30      66      22      
28      66      60      74      
22      66      27      36      
36      22      66      35      
36      66      40      37      
37      36      66      35      
37      66      40      74      
35      66      37      38      
38      66      37      78      
48      67      47      85      
42      67      48      84      
47      67      50      75      
48      68      42      84      
41      42      68      70      
42      68      69      84      
69      68      42      70      
68      49      41      70      
48      61      68      84      
38      71      60      78      
20      60      71      79      
63      72      62      86      
52      72      63      77      
64      72      52      77      
62      72      64      54      
47      54      72      75      
47      72      64      85      
62      72      54      86      
66      74      37      78      
60      28      74      81      
60      74      66      78      
47      67      75      85      
72      75      54      76      
47      75      72      85      
33      54      76      86      
33      76      57      83      
63      77      72      87      
64      72      77      85      
64      77      48      85      
61      48      77      84      
60      78      71      82      
15      79      20      86      
20      79      71      87      
60      71      79      82      
76      79      80      31      
80      79      76      72      
72      80      79      87      
72      76      80      75      
72      79      76      86      
76      79      31      15      
15      76      79      86      
15      31      76      83      
80      31      79      82      
80      76      31      81      
60      79      31      82      
31      81      76      83      
80      81      31      82      
78      82      60      74      
60      74      82      81      
60      81      82      31      
71      79      82      87      
15      83      76      33      
33      76      15      86      
18      14      83      25      
31      83      25      24      
24      83      18      34      
24      31      83      81      
57      83      76      73      
57      83      73      34      
34      83      73      24      
77      84      48      85      
48      84      67      85      
72      85      75      80      
80      72      85      87      
72      77      85      87      
76      86      54      72      
63      72      86      87      
63      86      20      87      
20      86      63      32      
20      86      79      87      
79      86      72      87      
80      82      79      87      
9      11       7      9      
9      7       6      9      
6      7       5      6      
13      58       4      13      
13      4       2      13      
6      5       1      6      
1      5       2      1      
1      2       4      1      
4      58       51      4      
9      6       56      9      
6      1       55      6      
6      55       56      6      
55      1       4      55      
4      51       55      4      
56      55       46      56      
46      55       53      46      
53      55       51      53      
46      53       45      46      
53      49       45      53      
45      49       41      45      
41      49       70      41      
45      41       43      45      
44      43       41      44      
41      70       44      41      
11      10       7      11      
7      10       8      7      
7      8       5      7      
12      13       2      12      
5      8       3      5      
5      3       2      5      
2      3       12      2      
8      10       18      8      
18      10       23      18      
3      8       16      3      
16      8       18      16      
3      16       21      3      
3      21       12      3      
23      25       18      23      
16      18       14      16      
14      18       25      14      
14      25       30      14      
30      25       29      30      
21      16       17      21      
17      16       14      17      
19      21       17      19      
19      17       22      19      
19      22       39      19      
17      14       22      17      
14      30       22      14      
30      29       27      30      
30      27       22      30      
39      22       35      39      
35      22       36      35      
36      22       27      36      
53      61       49      53      
68      69       70      68      
49      68       70      49      
61      68       49      61      
68      84       69      68      
84      68       61      84      
77      84       61      77      
77      85       84      77      
19      20       21      19      
20      32       21      20      
21      32       12      21      
35      38       39      35      
39      38       19      39      
19      38       20      19      
51      52       53      51      
51      58       59      51      
32      59       12      32      
59      58       13      59      
12      59       13      12      
35      37       38      35      
52      61       53      52      
51      59       52      51      
52      59       32      52      
63      52       32      63      
38      71       20      38      
32      20       63      32      
77      52       63      77      
77      61       52      77      
38      78       71      38      
78      38       37      78      
78      82       71      78      
63      87       77      63      
77      87       85      77      
20      71       87      20      
20      87       63      20      
82      87       71      82      
35      36       37      35      
36      40       37      36      
42      43       44      42      
69      42       70      69      
42      69       84      42      
42      84       67      42      
84      85       67      84      
44      70       42      44      
23      34       24      23      
10      34       23      10      
11      34       10      11      
9      34       11      9      
43      42       45      43      
46      45       47      46      
45      50       47      45      
42      50       45      42      
46      54       56      46      
9      56       57      9      
9      57       34      9      
54      46       47      54      
54      57       56      54      
24      34       73      24      
34      57       73      34      
47      50       75      47      
75      54       47      75      
57      76       73      57      
54      76       57      54      
76      54       75      76      
67      50       42      67      
67      75       50      67      
81      76       80      81      
82      81       80      82      
75      80       76      75      
76      83       73      76      
81      83       76      81      
24      83       81      24      
73      83       24      73      
75      85       80      75      
85      75       67      85      
87      82       80      87      
80      85       87      80      
23      24       25      23      
29      28       27      29      
25      31       29      25      
31      28       29      31      
27      40       36      27      
24      31       25      24      
28      40       27      28      
74      37       40      74      
28      74       40      28      
74      78       37      74      
28      31       81      28      
74      82       78      74      
81      82       74      81      
81      31       24      81      
74      28       81      74      
