title = " tecplot file for process Mesh " 
variables = "x",  "y", "z", "cell_type" 
zone N = 91 E = 394 DATAPACKING = BLOCK,  VARLOCATION = ([4]=CELLCENTERED), ZONETYPE=FETETRAHEDRON 
4.164386e-01     
5.000000e-01     5.000000e-01     4.122947e-01     5.000000e-01     5.000000e-01     
4.198149e-01     5.000000e-01     5.000000e-01     5.000000e-01     5.000000e-01     
4.050492e-01     5.000000e-01     3.395765e-01     5.000000e-01     4.152798e-01     
5.000000e-01     5.000000e-01     5.000000e-01     4.187492e-01     5.000000e-01     
4.057430e-01     5.000000e-01     4.176845e-01     3.267894e-01     4.041428e-01     
5.000000e-01     5.000000e-01     4.088398e-01     5.000000e-01     4.162771e-01     
5.000000e-01     5.000000e-01     5.000000e-01     4.101700e-01     4.222639e-01     
4.201413e-01     5.000000e-01     4.106547e-01     4.077294e-01     3.935449e-01     
4.127808e-01     4.044243e-01     4.108065e-01     5.000000e-01     4.047434e-01     
4.224014e-01     5.000000e-01     2.403081e-01     3.059595e-01     2.940060e-01     
3.989734e-01     3.287299e-01     3.217735e-01     4.085175e-01     4.242607e-01     
3.697653e-01     2.374924e-01     4.238071e-01     3.300526e-01     2.987331e-01     
3.027383e-01     2.520400e-01     2.706521e-01     3.207333e-01     3.281580e-01     
3.203314e-01     3.455114e-01     3.228332e-01     2.873197e-01     2.484531e-01     
3.297590e-01     3.696570e-01     2.004760e-01     2.290357e-01     2.025246e-01     
3.195085e-01     3.409599e-01     4.014865e-01     3.249805e-01     2.624738e-01     
1.414686e-01     2.167192e-01     2.364907e-01     1.723560e-01     2.446918e-01     
3.301622e-01     3.144869e-01     2.477107e-01     4.357722e-01     2.626539e-01     

-3.416514e-02     
-3.345431e-02     -1.000000e-01     -1.348476e-01     -1.342329e-01     -4.451597e-03     
2.405180e-02     -8.318273e-02     7.489395e-03     1.309113e-01     6.911759e-02     
2.353442e-02     5.272929e-02     5.137032e-02     1.556951e-01     1.805055e-01     
1.481582e-01     2.376631e-01     5.648026e-02     -5.134342e-02     -6.639593e-02     
1.160623e-01     -6.578211e-02     -7.782309e-02     -6.683582e-02     1.072413e-01     
1.095486e-01     -4.094274e-03     -6.195581e-02     -1.159911e-01     2.616783e-01     
2.292181e-01     3.232997e-01     3.289274e-01     -1.171414e-01     3.186511e-01     
1.047942e-01     1.739836e-01     1.832712e-01     3.710129e-02     9.888337e-02     
-1.469433e-01     -8.069215e-02     2.101569e-01     2.365064e-01     1.429776e-01     
3.466218e-01     3.268247e-01     -6.365995e-03     -4.787820e-03     -1.177917e-01     
2.116672e-01     1.113949e-01     1.139438e-01     1.335088e-02     1.541344e-02     
6.457785e-02     -5.458021e-02     3.012151e-01     1.666425e-01     2.226308e-01     
1.367728e-01     4.633019e-02     -3.283915e-02     3.692343e-02     2.526912e-02     
-4.705125e-02     -1.704600e-01     -1.070667e-01     5.197691e-02     -5.069630e-02     
-6.153132e-02     1.874916e-01     -2.639549e-02     6.272434e-02     1.135500e-01     
2.058578e-01     -5.901176e-02     -3.556295e-02     -1.157303e-03     -1.215376e-01     
1.021592e-01     1.858947e-01     -1.328112e-01     -9.142106e-03     4.125469e-02     
9.571431e-02     2.378622e-01     1.607134e-01     1.573903e-01     -7.572686e-02     

-5.000000e-01     
-4.162155e-01     -5.000000e-01     -5.000000e-01     -4.134876e-01     -5.497502e-02     
-1.261730e-02     -1.924155e-02     4.679255e-02     5.067157e-02     -2.966943e-02     
-3.954118e-01     -3.381394e-01     -5.000000e-01     -1.570971e-01     -1.121779e-01     
-6.347359e-02     -1.159630e-01     -1.330806e-01     -6.902415e-02     -1.328559e-01     
-1.415715e-02     -3.266934e-01     -3.854655e-01     -5.000000e-01     -1.759934e-01     
-2.378024e-01     -2.336348e-01     -2.659889e-01     -2.376384e-01     -1.772360e-01     
-2.297660e-01     -1.732515e-01     -2.620945e-01     2.897882e-02     -3.043166e-01     
-4.199397e-01     -3.261616e-01     -3.855319e-01     -1.084327e-01     -2.980193e-01     
-3.047901e-01     -1.657397e-01     -2.246080e-02     -5.180564e-03     8.376815e-02     
2.956004e-03     -6.729391e-02     -5.000000e-01     -4.174105e-01     -4.132928e-01     
-2.769245e-01     -4.307480e-01     -9.437782e-02     -2.034161e-01     -3.083366e-01     
5.229300e-02     -4.126243e-01     -1.002472e-01     -3.312094e-01     -1.538955e-01     
9.029134e-03     3.777487e-02     -1.065757e-01     -1.595744e-01     -5.044899e-02     
5.612593e-02     -3.850297e-01     -2.262354e-01     -3.161945e-01     -2.742190e-01     
-3.355425e-01     -1.958169e-01     -2.407255e-02     -8.574390e-02     -1.752547e-01     
-5.911103e-02     -2.858808e-02     4.232569e-02     -2.467384e-01     -3.286317e-01     
-1.128492e-02     -3.342174e-02     -2.373910e-01     -1.929470e-01     -2.057946e-01     
-2.305381e-01     -2.683836e-01     -1.137563e-01     -2.303467e-01     -3.868051e-02     


0      
0      0      0      0      0      0      0      0      0      0      
0      0      0      0      0      0      0      0      0      0      
0      0      0      0      0      0      0      0      0      0      
0      0      0      0      0      0      0      0      0      0      
0      0      0      0      0      0      0      0      0      0      
0      0      0      0      0      0      0      0      0      0      
0      0      0      0      0      0      0      0      0      0      
0      0      0      0      0      0      0      0      0      0      
0      0      0      0      0      0      0      0      0      0      
0      0      0      0      0      0      0      0      0      0      
0      0      0      0      0      0      0      0      0      0      
0      0      0      0      0      0      0      0      0      0      
0      0      0      0      0      0      0      0      0      0      
0      0      0      0      0      0      0      0      0      0      
0      0      0      0      0      0      0      0      0      0      
0      0      0      0      0      0      0      0      0      0      
0      0      0      0      0      0      0      0      0      0      
0      0      0      0      0      0      0      0      0      0      
0      0      0      0      0      0      0      0      0      0      
0      0      0      0      0      0      0      0      0      0      
0      0      0      0      0      0      0      0      0      0      
0      0      0      0      0      0      0      0      0      0      
0      0      0      0      0      0      0      0      0      0      
0      0      0      1      1      1      1      1      1      1      
1      1      1      1      1      1      1      1      1      1      
1      1      1      1      1      1      1      1      1      1      
1      1      1      1      1      1      1      1      1      1      
1      1      1      1      1      1      1      1      1      1      
1      1      1      1      1      1      1      1      1      1      
1      1      1      1      1      1      1      1      1      1      
1      1      1      1      1      1      1      1      1      1      
1      1      1      1      1      1      1      1      1      1      
1      1      1      1      1      1      1      1      1      1      
1      1      1      1      1      1      1      1      1      1      
1      1      1      1      1      1      1      1      1      1      
1      1      1      1      1      1      1      1      1      1      
1      1      1      1      1      1      1      1      1      1      
1      1      1      1      1      1      1      1      1      1      
1      1      1      1      1      1      1      1      1      1      
1      1      1      

6      7      8      20      
8      7      6      9      
9      8      7      79      
9      7      6      11      
9      7      10      57      
10      7      9      11      
11      10      7      22      
6      11      7      40      
15      16      17      19      
17      16      15      18      
18      17      16      44      
18      16      15      31      
19      15      16      26      
19      16      17      40      
6      20      8      21      
21      6      20      40      
7      20      6      40      
8      20      7      79      
10      22      11      17      
17      10      22      44      
17      22      11      40      
11      22      7      40      
10      7      22      57      
23      24      2      56      
2      24      23      5      
5      2      24      3      
2      24      12      56      
12      24      2      1      
1      12      24      50      
1      24      2      3      
5      3      24      4      
1      24      3      4      
1      24      4      25      
1      24      25      50      
15      26      27      90      
27      26      15      19      
19      27      26      55      
16      26      15      90      
19      26      16      40      
28      29      23      56      
23      29      28      30      
30      23      29      42      
30      29      28      43      
18      31      32      33      
32      31      18      15      
15      32      31      90      
16      31      18      59      
15      31      16      90      
33      18      31      59      
33      31      32      34      
34      31      32      36      
32      36      31      52      
16      40      26      54      
19      26      40      55      
17      19      40      11      
17      40      16      22      
16      22      40      54      
16      17      22      44      
19      40      11      6      
7      40      22      66      
6      19      40      21      
20      40      7      66      
21      19      40      55      
21      40      20      43      
27      41      38      90      
38      41      27      13      
13      38      41      37      
13      41      27      56      
37      41      13      12      
38      41      37      39      
39      38      41      52      
39      41      37      53      
12      37      41      53      
12      41      13      56      
23      29      42      24      
24      29      42      72      
24      23      29      56      
40      43      21      55      
20      43      40      64      
21      43      28      55      
28      43      21      30      
28      43      29      55      
17      44      45      10      
45      44      17      18      
18      45      44      59      
18      44      16      59      
49      50      25      58      
25      50      49      14      
14      25      50      1      
25      50      51      58      
51      50      25      24      
24      51      50      72      
12      24      50      72      
12      50      1      14      
12      50      14      53      
39      52      41      60      
38      41      52      90      
31      52      36      88      
32      52      31      90      
12      53      41      70      
12      50      53      70      
40      54      22      66      
16      22      54      77      
26      54      40      65      
16      54      26      73      
29      55      43      80      
28      55      29      56      
43      55      40      65      
21      55      28      19      
19      55      28      27      
26      40      55      65      
28      27      55      56      
27      26      55      41      
26      55      41      87      
27      41      55      56      
27      26      41      90      
12      41      56      70      
12      56      13      2      
29      56      55      80      
28      56      23      13      
13      28      56      27      
13      56      23      2      
41      55      56      80      
24      56      29      72      
12      56      24      72      
9      7      57      79      
22      57      7      66      
10      57      22      46      
22      46      57      62      
51      58      50      72      
45      59      47      44      
47      59      45      48      
48      59      45      18      
18      48      59      33      
31      59      16      61      
41      60      52      87      
31      61      16      73      
22      62      57      66      
40      65      54      66      
26      54      65      87      
26      65      55      87      
55      65      43      80      
40      43      65      64      
65      66      40      64      
64      65      66      75      
64      66      40      20      
54      66      65      75      
20      66      7      79      
64      66      20      78      
22      66      54      62      
7      66      57      79      
54      62      66      75      
54      22      62      77      
57      66      62      63      
63      57      66      67      
63      66      62      75      
66      67      57      79      
63      67      66      91      
12      70      56      72      
41      56      70      80      
50      70      12      72      
70      72      71      80      
71      72      70      58      
58      71      72      81      
56      72      70      80      
29      72      56      80      
51      58      72      81      
68      72      42      81      
42      72      68      24      
42      72      69      81      
69      72      42      29      
29      69      72      80      
26      73      54      87      
16      54      73      61      
16      73      26      90      
54      61      16      77      
54      73      61      87      
31      61      73      88      
31      73      16      90      
66      74      75      63      
75      74      66      64      
66      64      74      91      
63      74      75      82      
63      66      74      91      
62      75      54      89      
63      75      62      83      
65      75      64      86      
54      75      65      76      
76      75      65      86      
54      76      65      87      
54      75      76      89      
54      77      62      89      
54      61      77      89      
66      78      64      91      
20      78      66      79      
67      79      66      78      
67      79      78      35      
66      67      78      91      
35      79      78      20      
35      79      20      8      
64      80      69      43      
69      80      64      71      
71      69      80      72      
71      64      69      84      
71      80      64      86      
55      80      41      87      
41      80      70      87      
70      80      71      86      
69      80      29      43      
71      69      72      81      
65      80      55      87      
43      80      65      64      
51      81      72      68      
71      69      81      84      
63      82      75      83      
62      83      75      89      
71      64      84      85      
80      86      70      87      
64      86      80      65      
65      86      80      87      
76      86      65      87      
54      87      61      89      
54      76      87      89      
26      73      87      90      
52      41      87      90      
52      87      60      73      
52      73      60      88      
52      87      73      90      
26      87      41      90      
52      73      88      31      
52      73      31      90      
27      15      90      32      
38      27      90      32      
38      90      52      32      
9      8       6      9      
11      10       9      11      
6      11       9      6      
18      17       15      18      
19      15       17      19      
21      6       8      21      
17      10       11      17      
5      2       23      5      
5      3       2      5      
3      4       1      3      
1      4       25      1      
19      27       15      19      
30      23       28      30      
15      32       18      15      
33      18       32      33      
34      33       32      34      
17      11       19      17      
6      19       11      6      
21      19       6      21      
13      38       27      13      
30      28       21      30      
18      45       17      18      
45      10       17      45      
14      25       49      14      
1      25       14      1      
21      28       19      21      
28      27       19      28      
13      28       23      13      
13      27       28      13      
23      2       13      23      
18      48       45      18      
33      48       18      33      
27      32       15      27      
27      38       32      27      
79      35       8      79      
79      8       9      79      
9      10       57      9      
10      46       57      10      
46      62       57      46      
63      57       62      63      
67      57       63      67      
67      79       57      67      
57      79       9      57      
10      45       44      10      
22      10       44      22      
22      46       10      22      
22      44       16      22      
45      47       44      45      
48      47       45      48      
47      59       44      47      
46      22       62      46      
22      77       62      22      
16      77       22      16      
63      62       83      63      
4      3       5      4      
23      24       5      23      
5      24       4      5      
4      24       25      4      
30      42       23      30      
23      42       24      23      
51      25       24      51      
25      58       49      25      
51      58       25      51      
42      68       24      42      
24      72       51      24      
51      72       68      51      
24      68       72      24      
51      68       81      51      
51      81       58      51      
42      81       68      42      
71      58       81      71      
81      84       71      81      
71      84       85      71      
8      20       21      8      
8      35       20      8      
30      29       42      30      
43      21       20      43      
21      43       30      21      
43      29       30      43      
20      64       43      20      
29      69       42      29      
43      69       29      43      
35      67       78      35      
35      78       20      35      
64      20       78      64      
79      67       35      79      
69      81       42      69      
63      82       74      63      
69      84       81      69      
64      84       69      64      
85      84       64      85      
69      43       64      69      
67      91       78      67      
74      91       63      74      
63      91       67      63      
64      91       74      64      
78      91       64      78      
44      59       16      44      
60      52       39      60      
41      60       39      41      
59      61       16      59      
70      53       50      70      
53      70       41      53      
71      70       58      71      
70      72       58      70      
50      58       72      50      
50      72       70      50      
74      75       64      74      
61      77       16      61      
74      82       75      74      
63      83       82      63      
82      83       75      82      
71      85       64      71      
71      86       70      71      
64      86       71      64      
75      86       64      75      
86      75       76      86      
70      87       41      70      
86      87       70      86      
60      87       73      60      
73      87       61      73      
76      87       86      76      
41      87       60      41      
73      88       60      73      
60      88       52      60      
61      88       73      61      
52      88       36      52      
75      89       76      75      
83      89       75      83      
61      89       77      61      
89      83       62      89      
77      89       62      77      
87      89       61      87      
76      89       87      76      
39      53       41      39      
49      50       14      49      
50      53       14      50      
49      58       50      49      
1      2       3      1      
2      12       13      2      
14      12       1      14      
1      12       2      1      
31      33       34      31      
32      36       34      32      
36      31       34      36      
13      37       38      13      
38      37       39      38      
12      37       13      12      
39      52       38      39      
38      52       32      38      
32      52       36      32      
12      53       37      12      
37      53       39      37      
12      14       53      12      
48      59       47      48      
31      59       33      31      
59      48       33      59      
31      61       59      31      
31      36       88      31      
88      61       31      88      
