title = " tecplot file for process Mesh " 
variables = "x",  "y", "z", "cell_type" 
zone N = 99 E = 419 DATAPACKING = BLOCK,  VARLOCATION = ([4]=CELLCENTERED), ZONETYPE=FETETRAHEDRON 
-5.000000e-01     
-4.229687e-01     -5.000000e-01     -5.000000e-01     -5.000000e-01     -5.000000e-01     
-4.185837e-01     -5.000000e-01     -4.149223e-01     -5.000000e-01     -5.000000e-01     
-5.000000e-01     -4.203127e-01     -5.000000e-01     -5.000000e-01     -5.000000e-01     
-5.000000e-01     -4.149058e-01     -5.000000e-01     -4.051338e-01     -4.123832e-01     
-4.054596e-01     -5.000000e-01     -5.000000e-01     -4.158854e-01     -5.000000e-01     
-5.000000e-01     -3.985716e-01     -5.000000e-01     -4.056106e-01     -3.942657e-01     
-5.000000e-01     -4.032624e-01     -4.035991e-01     -4.039991e-01     -5.000000e-01     
-4.073702e-01     -4.060760e-01     -4.106734e-01     -5.000000e-01     -4.218128e-01     
-3.949485e-01     -3.379306e-01     -3.326272e-01     -3.111418e-01     -3.699585e-01     
-3.622040e-01     -3.142911e-01     -3.715065e-01     -3.057680e-01     -2.808388e-01     
-4.459200e-01     -5.000000e-01     -3.381802e-01     -3.315044e-01     -3.031029e-01     
-2.858783e-01     -2.331233e-01     -3.343488e-01     -2.327623e-01     -3.394273e-01     
-3.257467e-01     -2.873063e-01     -2.924643e-01     -2.491532e-01     -2.486574e-01     
-3.474381e-01     -2.745640e-01     -3.205075e-01     -3.104070e-01     -2.956912e-01     
-2.291930e-01     -1.442420e-01     -3.292940e-01     -2.879696e-01     -2.086870e-01     
-1.630906e-01     -8.973833e-02     -2.272779e-01     -1.450965e-01     -1.198214e-01     
-2.226762e-01     -2.453883e-01     -2.044177e-01     -1.581102e-01     -2.391774e-01     
-1.752325e-01     -1.803283e-01     -1.983751e-01     -1.836712e-01     -2.285304e-01     
-9.934045e-02     -2.392632e-01     -1.514510e-01     -1.179282e-01     -2.383653e-01     
-3.351896e-01     -1.862195e-01     -1.184857e-01     
-2.636376e-01     
-2.829296e-01     -3.360925e-01     -3.334971e-01     -2.490588e-01     -2.396219e-01     
-2.789189e-01     6.228643e-02     3.543992e-02     5.240016e-02     -8.366834e-03     
1.440880e-01     -5.276190e-02     -7.039417e-02     -7.952470e-02     -6.024899e-03     
-1.694939e-01     -2.165609e-01     -1.672063e-01     1.096455e-01     1.782931e-01     
-1.189335e-01     -8.081868e-03     -1.192000e-01     1.032302e-01     1.526509e-01     
1.046394e-01     -1.273472e-01     -1.330231e-01     4.826049e-02     -3.372304e-01     
-2.324125e-01     -2.767875e-01     1.984875e-01     -1.467599e-01     -1.524380e-01     
-1.867207e-01     -8.056237e-03     1.311984e-01     -6.874158e-02     2.169070e-03     
-3.311771e-01     1.047620e-01     -2.137908e-01     -1.080025e-01     -1.035602e-02     
-5.915017e-02     1.924633e-01     1.277019e-01     5.341083e-04     -9.868880e-02     
-6.669972e-02     -5.781284e-02     -6.697607e-02     5.796610e-02     -1.442318e-01     
1.384977e-02     -7.266438e-02     8.257817e-02     9.992067e-02     -3.320251e-02     
7.434720e-02     1.837134e-01     -8.641785e-02     -1.701404e-01     2.830865e-02     
-2.425458e-01     -2.223731e-01     -1.485078e-01     -2.861248e-01     -3.089671e-01     
-1.007283e-01     -6.870312e-02     1.687735e-02     1.198084e-01     7.585434e-02     
1.624449e-01     1.140237e-01     7.852036e-03     -1.470839e-02     8.944716e-02     
-1.367538e-01     -1.663794e-01     -2.414552e-01     -1.642414e-01     -5.227723e-02     
-5.581811e-03     9.721807e-02     1.916719e-01     -5.653861e-03     1.439005e-01     
-2.124176e-02     2.237190e-01     -9.010675e-02     -1.181168e-01     -2.596275e-01     
-2.679621e-01     -2.027105e-01     -1.601817e-01     
5.341879e-02     
9.602862e-02     9.912744e-02     4.844494e-03     1.355396e-01     -2.877674e-02     
9.828848e-03     2.751135e-02     7.123904e-02     1.312398e-01     5.496594e-02     
6.041773e-02     7.028715e-02     1.303165e-01     2.557900e-02     -4.723589e-02     
5.774721e-02     1.781491e-01     1.592121e-01     1.139045e-02     1.091536e-01     
1.749481e-01     2.318314e-01     2.353156e-01     1.741451e-01     1.549611e-01     
2.362345e-01     7.441303e-03     -6.100230e-02     2.684010e-01     5.165750e-02     
-1.286301e-01     -9.746187e-02     2.088884e-01     -9.251752e-02     -1.633208e-01     
8.501758e-02     1.728673e-01     3.160300e-01     3.254343e-01     3.453038e-01     
-4.259460e-02     9.305486e-02     -3.136316e-02     9.417112e-02     -4.206277e-02     
2.671404e-01     1.499436e-01     2.414858e-01     5.383750e-02     -2.804394e-02     
-8.017357e-02     -1.486378e-01     3.511369e-01     3.325482e-01     1.951654e-01     
1.727938e-01     2.410548e-01     1.741089e-01     1.042529e-01     1.251280e-01     
1.258007e-02     5.126215e-02     2.904519e-01     3.292783e-01     2.720810e-01     
1.242502e-01     7.511149e-02     -8.291304e-02     -1.278330e-01     -3.352824e-02     
1.473061e-01     3.061934e-01     2.463018e-01     2.335865e-01     1.962091e-01     
2.023573e-01     2.341226e-01     1.017809e-01     1.371372e-01     9.974062e-02     
4.869574e-02     1.329907e-01     1.283477e-01     1.248303e-01     3.325330e-02     
-3.863238e-03     1.555004e-02     1.150726e-01     2.149141e-01     1.669341e-01     
5.291877e-02     1.890903e-01     7.554143e-02     1.657129e-01     6.881271e-03     
3.235405e-02     6.437256e-02     5.207872e-02     

0      
0      0      0      0      0      0      0      0      0      0      
0      0      0      0      0      0      0      0      0      0      
0      0      0      0      0      0      0      0      0      0      
0      0      0      0      0      0      0      0      0      0      
0      0      0      0      0      0      0      0      0      0      
0      0      0      0      0      0      0      0      0      0      
0      0      0      0      0      0      0      0      0      0      
0      0      0      0      0      0      0      0      0      0      
0      0      0      0      0      0      0      0      0      0      
0      0      0      0      0      0      0      0      0      0      
0      0      0      0      0      0      0      0      0      0      
0      0      0      0      0      0      0      0      0      0      
0      0      0      0      0      0      0      0      0      0      
0      0      0      0      0      0      0      0      0      0      
0      0      0      0      0      0      0      0      0      0      
0      0      0      0      0      0      0      0      0      0      
0      0      0      0      0      0      0      0      0      0      
0      0      0      0      0      0      0      0      0      0      
0      0      0      0      0      0      0      0      0      0      
0      0      0      0      0      0      0      0      0      0      
0      0      0      0      0      0      0      0      0      0      
0      0      0      0      0      0      0      0      0      0      
0      0      0      0      0      0      0      0      0      0      
0      0      1      1      1      1      1      1      1      1      
1      1      1      1      1      1      1      1      1      1      
1      1      1      1      1      1      1      1      1      1      
1      1      1      1      1      1      1      1      1      1      
1      1      1      1      1      1      1      1      1      1      
1      1      1      1      1      1      1      1      1      1      
1      1      1      1      1      1      1      1      1      1      
1      1      1      1      1      1      1      1      1      1      
1      1      1      1      1      1      1      1      1      1      
1      1      1      1      1      1      1      1      1      1      
1      1      1      1      1      1      1      1      1      1      
1      1      1      1      1      1      1      1      1      1      
1      1      1      1      1      1      1      1      1      1      
1      1      1      1      1      1      1      1      1      1      
1      1      1      1      1      1      1      1      1      1      
1      1      1      1      1      1      1      1      1      1      
1      1      1      1      1      1      1      1      1      1      
1      1      1      1      1      1      1      1      1      1      
1      1      1      1      1      1      1      1      

1      2      3      5      
3      2      1      4      
4      3      2      31      
4      2      1      7      
1      2      5      37      
4      7      1      6      
6      7      1      37      
1      7      2      37      
4      2      7      31      
8      9      10      12      
10      9      8      11      
11      10      9      13      
11      9      8      16      
12      8      9      20      
12      9      10      25      
10      13      11      14      
14      10      13      38      
14      13      11      15      
11      13      9      16      
10      9      13      38      
15      13      11      16      
14      13      15      17      
15      13      16      52      
17      13      15      28      
14      13      17      37      
9      21      20      43      
20      21      9      12      
9      12      21      25      
14      22      23      38      
23      22      14      24      
24      23      22      47      
24      22      14      19      
19      22      14      37      
10      25      26      12      
26      25      10      27      
27      26      25      34      
27      25      10      23      
10      25      9      38      
9      25      21      43      
23      27      25      30      
23      25      10      38      
17      28      15      29      
29      17      28      6      
29      28      15      52      
13      28      17      37      
15      28      13      52      
6      17      28      37      
6      28      29      35      
25      30      27      49      
23      30      25      38      
4      31      7      42      
2      7      31      97      
27      34      25      49      
28      35      6      7      
29      6      35      32      
29      35      28      52      
28      35      7      44      
6      7      35      33      
6      28      7      37      
7      35      33      44      
6      33      35      32      
29      32      35      36      
36      35      29      52      
6      17      37      1      
7      37      28      44      
2      37      7      97      
17      37      5      19      
5      37      17      1      
5      37      2      18      
18      37      2      67      
5      37      18      19      
17      37      19      14      
19      37      18      22      
18      22      37      67      
28      37      13      45      
14      13      37      22      
13      37      22      45      
14      13      22      38      
30      38      23      47      
25      38      30      59      
10      23      38      14      
9      38      25      59      
9      13      38      61      
23      38      22      47      
22      38      13      61      
9      43      20      62      
21      43      25      48      
9      25      43      59      
7      44      42      97      
42      44      7      33      
35      44      28      69      
33      44      35      69      
37      44      7      97      
28      44      37      45      
13      28      45      50      
22      45      37      67      
13      45      22      61      
23      40      47      24      
47      40      23      41      
23      47      41      30      
38      47      30      74      
30      47      41      74      
22      47      38      61      
34      48      25      49      
25      48      34      21      
25      48      43      59      
21      43      48      63      
27      49      30      39      
25      30      49      59      
27      49      39      34      
25      49      48      59      
50      13      28      46      
28      46      13      52      
28      50      46      51      
13      50      45      61      
28      45      50      51      
45      51      44      82      
44      51      45      28      
28      44      51      69      
50      51      45      86      
16      15      52      29      
16      52      13      46      
13      16      46      9      
29      52      16      53      
29      52      53      36      
47      56      57      61      
57      56      47      58      
58      57      56      72      
58      47      57      74      
58      56      47      64      
43      59      57      61      
57      59      43      60      
60      57      59      76      
60      43      57      79      
60      59      43      91      
43      59      48      91      
30      49      59      74      
30      59      38      74      
38      59      9      61      
9      59      43      61      
57      61      59      74      
43      61      57      79      
59      61      38      74      
45      61      50      79      
22      61      45      56      
57      61      56      72      
47      56      61      22      
47      61      57      74      
38      61      47      74      
56      61      45      72      
22      56      45      67      
60      43      62      63      
62      43      60      50      
60      50      43      79      
60      62      50      88      
60      43      63      91      
60      63      62      88      
43      48      63      91      
56      64      58      65      
47      58      64      74      
2      67      37      97      
68      67      45      83      
45      67      68      37      
37      68      45      44      
37      67      68      97      
57      61      72      79      
45      56      72      83      
45      72      61      79      
58      57      72      90      
57      75      74      59      
74      75      57      66      
57      66      75      76      
57      74      66      58      
57      75      59      76      
64      74      58      66      
41      74      47      54      
30      74      41      55      
55      74      41      54      
57      58      66      90      
57      66      76      90      
60      57      76      79      
60      76      59      91      
50      79      61      43      
45      79      50      86      
72      79      45      86      
57      79      72      90      
76      79      57      90      
60      79      76      81      
60      50      79      88      
79      81      60      88      
76      60      81      91      
76      81      77      91      
77      81      76      78      
45      68      83      82      
45      83      67      56      
45      83      72      82      
68      83      82      98      
45      68      82      44      
82      72      45      86      
82      83      72      85      
85      82      83      98      
85      72      82      94      
50      86      79      87      
87      79      50      88      
87      86      79      94      
82      72      86      94      
82      86      45      51      
79      86      72      94      
60      88      81      89      
89      60      88      63      
89      81      60      91      
81      88      79      92      
87      79      88      92      
66      90      58      73      
77      91      81      89      
89      91      60      63      
77      91      89      93      
81      92      79      80      
80      92      79      94      
79      87      94      92      
85      72      94      95      
85      94      82      99      
85      95      94      99      
31      7      42      97      
44      37      68      97      
42      44      71      97      
71      44      42      70      
44      68      82      96      
82      96      68      98      
44      68      96      97      
83      98      68      84      
84      83      98      85      
85      82      98      99      
4      3       1      4      
1      3       5      1      
6      4       1      6      
11      10       8      11      
12      8       10      12      
14      10       11      14      
14      11       15      14      
15      11       16      15      
14      15       17      14      
24      23       14      24      
24      14       19      24      
27      26       10      27      
26      12       10      26      
23      27       10      23      
29      17       15      29      
6      17       29      6      
29      32       6      29      
36      32       29      36      
1      5       17      1      
5      19       17      5      
19      14       17      19      
23      10       14      23      
24      40       23      24      
29      15       16      29      
36      29       53      36      
16      53       29      16      
6      1       17      6      
8      16       11      8      
80      81       79      80      
76      79       81      76      
78      81       77      78      
81      78       76      81      
76      90       79      76      
90      76       66      90      
66      73       90      66      
92      81       80      92      
56      83       72      56      
72      83       85      72      
72      79       90      72      
72      90       58      72      
90      73       58      90      
84      85       83      84      
94      92       80      94      
79      94       80      79      
72      94       79      72      
95      94       72      95      
85      95       72      85      
94      95       99      94      
85      99       95      85      
56      72       58      56      
65      56       58      65      
3      2       5      3      
2      18       5      2      
3      31       2      3      
31      3       4      31      
44      42       33      44      
2      67       18      2      
69      44       33      69      
42      70       71      42      
67      83       56      67      
68      84       83      68      
68      83       67      68      
4      42       31      4      
44      70       42      44      
42      97       31      42      
31      97       2      31      
2      97       67      2      
67      97       68      67      
42      71       97      42      
68      97       96      68      
51      82       44      51      
86      82       51      86      
82      86       94      82      
82      96       44      82      
82      98       96      82      
96      98       68      96      
68      98       84      68      
98      85       84      98      
82      99       98      82      
94      99       82      94      
98      99       85      98      
5      18       19      5      
19      22       24      19      
18      22       19      18      
40      47       41      40      
22      47       24      22      
47      40       24      47      
41      54       55      41      
47      54       41      47      
22      56       47      22      
58      64       65      58      
58      66       64      58      
47      56       64      47      
56      65       64      56      
18      67       22      18      
22      67       56      22      
58      73       66      58      
75      74       66      75      
74      64       66      74      
64      74       47      64      
54      74       55      54      
47      74       54      47      
21      20       12      21      
25      12       26      25      
12      25       21      12      
23      30       27      23      
27      34       26      27      
34      25       26      34      
25      34       21      25      
27      30       39      27      
27      39       34      27      
40      41       23      40      
23      41       30      23      
34      48       21      34      
30      49       39      30      
34      49       48      34      
39      49       34      39      
49      59       48      49      
59      74       75      59      
49      74       59      49      
30      74       49      30      
30      55       74      30      
41      55       30      41      
66      76       75      66      
75      76       59      75      
77      76       78      77      
81      88       89      81      
77      91       76      77      
81      89       77      81      
59      76       91      59      
48      59       91      48      
63      48       91      63      
63      91       89      63      
89      91       93      89      
93      91       77      93      
89      93       77      89      
86      50       87      86      
50      88       87      50      
62      88       50      62      
81      92       88      81      
88      63       89      88      
63      88       62      63      
87      88       92      87      
12      20       8      12      
8      20       9      8      
21      43       20      21      
62      9       20      62      
43      62       20      43      
43      63       62      43      
21      48       63      21      
21      63       43      21      
9      16       8      9      
69      51       44      69      
44      71       70      44      
44      97       71      44      
96      97       44      96      
35      33       32      35      
35      32       36      35      
16      9       46      16      
13      46       9      13      
13      50       46      13      
28      46       51      28      
50      51       46      50      
35      52       28      35      
28      52       46      28      
46      52       16      46      
16      52       53      16      
36      53       52      36      
36      52       35      36      
43      50       61      43      
43      61       9      43      
9      61       13      9      
13      61       50      13      
43      62       50      43      
9      62       43      9      
35      69       33      35      
35      28       69      35      
28      51       69      28      
50      86       51      50      
92      94       87      92      
86      87       94      86      
6      7       4      6      
32      33       6      32      
6      33       7      6      
7      33       42      7      
7      42       4      7      
