Title = " tecplot file for 2D Cavity problem " 
variables = "x", "y", "z", "velX", "cellCentroidY" 
Zone T = "nmesh0" N = 135 E = 224 DATAPACKING = BLOCK, VARLOCATION = ([4-5]=CELLCENTERED), ZONETYPE=FETRIANGLE
1.0    0.9649024825    1.0    0.95    0.95155322615    
1.0    0.92177911433    0.9    0.95749200678    1.0    
0.87226824393    0.85    0.9572484407    1.0    0.82219618312    
0.8    0.95696372984    1.0    0.77199475402    0.75    
0.72195093401    0.7    0.95675970876    1.0    0.95688164945    
1.0    0.67197150816    0.65    0.95755698627    1.0    
0.62193949298    0.6    0.95959377415    1.0    0.57236329358    
0.55    1.0    0.95721112701    1.0    0.95945200039    
1.0    0.48437517704    0.5    0.96732120107    0.52831468118    
0.9133527983    0.91582097533    0.89627773688    0.91782156923    0.91455680685    
0.91426123614    0.91359975372    0.91349616662    0.91421551885    0.91629100111    
0.92245638347    0.84526518899    0.79400903185    0.74361496428    0.69356203423    
0.64373910321    0.59286509504    0.53807151633    0.87057486204    0.81583309813    
0.76505094353    0.71431985769    0.6649602505    0.61677039554    0.87066230274    
0.56805308825    0.87249847607    0.87066024693    0.86985479406    0.87026057149    
0.87173328327    0.8740188815    0.83452260875    0.78675489866    0.73380082327    
0.68391918853    0.63574362176    0.59322958088    0.82830603574    0.87359766195    
0.82608162102    0.82569617528    0.82706195114    0.8285477429    0.54938968204    
0.82718982092    0.8287191441    0.78320791419    0.74788912304    0.70295502959    
0.65116510576    0.60011687015    0.77998716233    0.78188085254    0.78401043104    
0.73121963088    0.73540856209    0.73883927731    0.78450765774    0.67312094014    
0.61434151013    0.69489576235    0.78300081971    0.68591149471    0.55884472011    
0.64785825573    0.74192742165    0.73665249203    0.70398345607    0.73926987841    
0.52169417532    0.56796530247    0.59668872216    0.62751779272    0.6592260919    
0.49319345201    0.54466024892    0.69702479356    0.69240131119    0.57249702702    
0.60240505316    0.51753479009    0.64867709448    0.54224118495    0.48724078267    
0.60152238429    0.5618446652    0.51058041495    0.55169427507    0.4990264969    

1.0    0.96538400526    0.95    1.0    0.92000601205    
0.9    0.95913369295    1.0    0.86903291872    0.85    
0.95701048188    1.0    0.81995137328    0.8    0.95590742877    
1.0    0.77024877003    0.75    0.95593396956    1.0    
0.9564812879    1.0    0.72009911714    0.7    0.66949183304    
0.65    0.95732543115    1.0    0.61844504415    0.6    
0.95812133767    1.0    0.56783265302    0.55    0.9593733532    
1.0    0.4    0.43216748305    0.45    0.48279214809    
0.5    0.95104823121    1.0    0.52524828361    0.96511729799    
0.41291898701    0.46683219811    0.91600608837    0.88258600317    0.83991377622    
0.79098435563    0.74104570727    0.69028227669    0.63842124284    0.58457816469    
0.52565479765    0.91187468859    0.91153407609    0.91214185366    0.91379185358    
0.91566984216    0.91696323584    0.91991572278    0.86629682455    0.86742745263    
0.86664992287    0.86930622211    0.87200935229    0.87531587826    0.44434380015    
0.8737749857    0.81296847359    0.7630594134    0.71247305247    0.6609412431    
0.60810077634    0.5536017523    0.83043935308    0.81742414419    0.8246807162    
0.82685905417    0.83137907541    0.83855543059    0.78622661388    0.49881568546    
0.7357980191    0.68457114667    0.63254850053    0.57985069778    0.82039372635    
0.47386267257    0.52684794462    0.76097110423    0.78364947962    0.78146635348    
0.78429570521    0.79467169092    0.70901105062    0.65682439085    0.60527804061    
0.73541287677    0.67929764752    0.62923533916    0.55356110881    0.73824985597    
0.73897982284    0.69786106312    0.50182839444    0.64719166416    0.76453172488    
0.68999466862    0.57923162396    0.47810321985    0.60227481054    0.52939615087    
0.72695267365    0.71857375242    0.68200187547    0.63665376955    0.59431737623    
0.68240404586    0.67830493031    0.55808573722    0.50752877441    0.63154185281    
0.57897227315    0.63349850238    0.5407051787    0.58512439681    0.58765603511    
0.51739590637    0.5425106701    0.53507553622    0.49379788272    0.47644982963    

0.0    0.0    0.0    0.0    0.0    
0.0    0.0    0.0    0.0    0.0    
0.0    0.0    0.0    0.0    0.0    
0.0    0.0    0.0    0.0    0.0    
0.0    0.0    0.0    0.0    0.0    
0.0    0.0    0.0    0.0    0.0    
0.0    0.0    0.0    0.0    0.0    
0.0    0.0    0.0    0.0    0.0    
0.0    0.0    0.0    0.0    0.0    
0.0    0.0    0.0    0.0    0.0    
0.0    0.0    0.0    0.0    0.0    
0.0    0.0    0.0    0.0    0.0    
0.0    0.0    0.0    0.0    0.0    
0.0    0.0    0.0    0.0    0.0    
0.0    0.0    0.0    0.0    0.0    
0.0    0.0    0.0    0.0    0.0    
0.0    0.0    0.0    0.0    0.0    
0.0    0.0    0.0    0.0    0.0    
0.0    0.0    0.0    0.0    0.0    
0.0    0.0    0.0    0.0    0.0    
0.0    0.0    0.0    0.0    0.0    
0.0    0.0    0.0    0.0    0.0    
0.0    0.0    0.0    0.0    0.0    
0.0    0.0    0.0    0.0    0.0    
0.0    0.0    0.0    0.0    0.0    
0.0    0.0    0.0    0.0    0.0    
0.0    0.0    0.0    0.0    0.0    

100.888329075    301.475890015    114.191591432    291.510964358    201.629141855    
55.3031147337    67.6400821056    354.611901972    331.345545455    119.452091168    
27.6888067812    42.8364101533    370.142705771    270.290728948    350.854860102    
83.5801044702    19.0478081947    31.8932217828    377.413647509    303.133255333    
361.417127249    62.863045381    14.4449746815    24.9047875342    381.891113496    
323.217805236    367.959867979    384.853592442    336.000584505    372.199484834    
49.3439527225    11.4099024846    19.916342775    39.4575124154    9.13221552205    
16.0593019999    386.9078751    344.761161895    375.02519176    31.6960077114    
7.26309440289    12.7929512984    388.320604225    350.803835482    377.113166012    
25.226860416    5.51041439431    9.44082734212    389.569742655    354.874932284    
379.91527033    3.62828118205    7.88917326477    3.92442265216    15.7904274767    
8.16019807614    19.3087033055    3.38245318023    391.659445992    359.146772595    
378.689406229    17.1977137899    355.645508195    210.158546742    21.877871641    
18.880804973    26.2262319505    266.806889147    171.734369202    113.160144516    
186.333851102    86.7162901352    152.9313084    67.55763404    116.461033121    
53.9815961751    92.1067656873    43.6065256858    74.015731875    35.1699504161    
59.7851579929    27.5025786941    48.0817001512    37.6882945712    296.016306215    
222.471840528    314.821554201    260.040586312    327.074268891    283.065111266    
335.461038418    299.558944694    340.962971322    310.959014179    345.042849285    
319.012968399    323.233408224    30.8085566153    226.668760459    148.249666127    
258.813931601    200.852441881    279.06113479    228.24777809    293.821352729    
253.481840218    303.947445048    269.78000102    309.750771699    281.927162671    
33.2456414386    290.122055205    114.458203114    170.520729794    92.0190333557    
137.118767242    74.7426008979    111.545362895    60.8813772301    90.980565669    
49.3879932489    74.1299450154    39.3981515151    60.3684316885    159.625482278    
206.229871439    229.982385493    181.41585294    251.718088568    210.066820223    
266.158594542    229.582673829    277.199477632    244.491223165    278.715940094    
257.906194792    132.205297869    49.6040684744    41.2626576455    108.450711542    
150.167361904    89.0788912054    124.170291603    73.1318037893    101.97641173    
60.0394895476    83.9706389787    174.72840837    258.275342602    49.7510046222    
69.6224182539    143.478833537    188.148517114    213.218615905    177.076895735    
228.238601995    192.04006241    242.740061336    208.67650271    222.474943877    
118.9133069    158.838593995    98.1941555869    130.651281565    81.4465968118    
108.181101493    58.1046385624    243.214253863    149.768355592    190.473300089    
123.427917812    158.04028779    103.165365153    132.608261454    67.9012778234    
90.1708382368    206.129521279    175.145349346    221.805756375    187.432003072    
146.440572016    173.810704327    75.961267659    124.11376427    156.190128236    
208.419694208    181.784788141    86.6640308954    109.864194431    151.200048473    
104.95450961    125.845126788    73.1597137525    79.9382130576    94.2681870187    
207.657745276    189.922371895    191.239229652    161.992833595    181.381910276    
156.576272904    135.757554988    112.740328614    130.796024487    185.934461743    
169.30108989    165.996143653    90.316950272    97.0246999918    109.115032924    
139.709817321    160.002903127    116.738417841    135.292120589    145.425053255    
110.107996081    123.553814731    139.830896246    125.813744213    113.107276577    
119.290946385    103.949598241    107.729940224    100.903315377    
0.97293575685    0.989009545398    0.943651585818    0.974706062208    0.947685042806    
0.923644279669    0.896345756178    0.986565886922    0.971952255656    0.891435211434    
0.873520772673    0.845860961223    0.98569063052    0.944130550938    0.97098381177    
0.843355261487    0.823745038228    0.796305729023    0.985230146199    0.941498507355    
0.970670724839    0.794092653159    0.77381361146    0.74636379278    0.985240413417    
0.941041298689    0.970852370139    0.985468889654    0.941446745449    0.971263740463    
0.744157021882    0.723771662669    0.696096168108    0.693664693482    0.673621043172    
0.645496550564    0.985820255085    0.942534488537    0.971739667969    0.642554949463    
0.623375049926    0.594942624852    0.986149712756    0.943798294165    0.972371733475    
0.590884427244    0.573286461272    0.547950270045    0.986666688895    0.944892178959    
0.974705959102    0.426789856307    0.455501730939    0.476871019464    0.459957327765    
0.502458155871    0.540064497569    0.525048713053    0.98897082674    0.947597275459    
0.972093832342    0.510746451578    0.944339481926    0.931196566645    0.492892169161    
0.437883001189    0.441124525651    0.928155837793    0.90711174099    0.863144564612    
0.887642505578    0.816566045568    0.862926519409    0.767024497595    0.814854833919    
0.716754166983    0.765322656756    0.665652743739    0.714876234022    0.613273480248    
0.663464507181    0.558258409876    0.610540979871    0.554317904788    0.926425835135    
0.89779806926    0.926584967985    0.896947453662    0.927498851472    0.896630040806    
0.92889624336    0.898365906033    0.930085762224    0.90050945381    0.931650473347    
0.902890642579    0.903804376403    0.497319286326    0.881678046042    0.8398401361    
0.881915881882    0.85541391154    0.882734362913    0.849992929311    0.885084136106    
0.853557441828    0.887687819647    0.855931566224    0.888696659791    0.859493257256    
0.47024302865    0.863015659707    0.788617192143    0.837541909591    0.7385224582    
0.787699253426    0.687613934728    0.737328872897    0.635563775473    0.68614587304    
0.581893659214    0.633935521086    0.526037443243    0.580445795644    0.809112928396    
0.838084657973    0.836197991644    0.811304243919    0.840344959873    0.808991002886    
0.843532665252    0.810868983772    0.84862445767    0.813827805989    0.844080193814    
0.820995848042    0.761361667078    0.526393147593    0.472343764203    0.710725371046    
0.761162138823    0.659242977502    0.709911254177    0.606769583223    0.658031022976    
0.553424297496    0.605868128186    0.788260474084    0.817244227912    0.499861386064    
0.553388209016    0.734957997235    0.788364781329    0.796884063169    0.758732751864    
0.797522770594    0.766041479586    0.803316836104    0.76800707345    0.772049335555    
0.683465086808    0.735329969782    0.631576279288    0.681869988285    0.579562431061    
0.630447208669    0.500828841618    0.793676574237    0.70806104649    0.751261161284    
0.655166391964    0.705057170916    0.604718155272    0.652040013938    0.527373864313    
0.579338239311    0.75348021576    0.724568964351    0.765247519911    0.722589132734    
0.673608622641    0.708835889059    0.528226852282    0.627144679478    0.677611223741    
0.741401744472    0.704452769245    0.553932543558    0.60357873774    0.657750528803    
0.579441709612    0.615344344105    0.503076289698    0.504901232691    0.555456287497    
0.737039603439    0.713373284337    0.707731562356    0.669158510707    0.692462112731    
0.650070592779    0.626454815015    0.584495959531    0.603003407431    0.696049205701    
0.664565942914    0.663656168893    0.531611857252    0.535197070893    0.56450754699    
0.61507775187    0.647624881498    0.571345690562    0.598264987959    0.616731221211    
0.546424120492    0.569590532866    0.602054725769    0.568948900765    0.547134253077    
0.554215505735    0.517243695052    0.523488545069    0.50207833053    
1     2     3     
2     1     4     
3     2     5     
2     4     7     
5     2     7     
3     5     6     
6     5     9     
7     4     8     
7     8     11     
9     5     49     
6     9     10     
10     9     13     
11     8     12     
7     11     48     
11     12     15     
13     9     50     
10     13     14     
14     13     17     
15     12     16     
11     15     57     
15     16     19     
17     13     51     
14     17     18     
18     17     23     
19     16     20     
15     19     58     
19     20     21     
21     20     22     
19     21     59     
21     22     27     
23     17     52     
18     23     24     
24     23     25     
25     23     53     
24     25     26     
26     25     29     
27     22     28     
21     27     60     
27     28     31     
29     25     54     
26     29     30     
30     29     33     
31     28     32     
27     31     61     
31     32     35     
33     29     55     
30     33     34     
34     33     44     
35     32     36     
31     35     62     
35     36     45     
39     38     37     
38     39     40     
40     39     41     
38     40     47     
40     41     44     
44     33     56     
34     44     41     
45     36     43     
35     45     63     
45     43     42     
40     44     56     
45     42     63     
5     7     48     
47     40     56     
38     47     46     
46     47     70     
48     11     57     
5     48     49     
9     49     50     
49     48     64     
13     50     51     
50     49     64     
17     51     52     
51     50     72     
23     52     53     
52     51     73     
25     53     54     
53     52     74     
29     54     55     
54     53     75     
33     55     56     
55     54     76     
56     55     77     
57     15     58     
48     57     64     
58     19     59     
57     58     65     
59     21     60     
58     59     66     
60     27     61     
59     60     67     
61     31     62     
60     61     68     
62     35     63     
61     62     69     
62     63     71     
47     56     85     
64     57     65     
50     64     72     
65     58     66     
64     65     78     
66     59     67     
65     66     79     
67     60     68     
66     67     80     
68     61     69     
67     68     81     
69     62     71     
68     69     82     
70     47     85     
69     71     83     
51     72     73     
72     64     78     
52     73     74     
73     72     84     
53     74     75     
74     73     86     
54     75     76     
75     74     87     
55     76     77     
76     75     88     
56     77     85     
77     76     89     
72     78     84     
78     65     79     
79     66     80     
78     79     84     
80     67     81     
79     80     94     
81     68     82     
80     81     95     
82     69     83     
81     82     96     
83     71     90     
82     83     97     
73     84     86     
85     77     92     
70     85     91     
74     86     87     
86     84     93     
75     87     88     
87     86     98     
76     88     89     
88     87     99     
77     89     92     
89     88     100     
84     79     93     
83     90     97     
91     85     92     
92     89     104     
86     93     98     
93     79     94     
94     80     95     
93     94     101     
95     81     96     
94     95     101     
96     82     97     
95     96     105     
96     97     106     
87     98     99     
98     93     101     
88     99     100     
99     98     102     
89     100     104     
100     99     103     
91     92     108     
97     90     110     
98     101     102     
101     95     105     
99     102     103     
102     101     107     
100     103     112     
103     102     109     
92     104     108     
104     100     112     
105     96     106     
101     105     107     
106     97     110     
105     106     111     
102     107     109     
107     105     111     
108     104     115     
103     109     114     
109     107     111     
106     110     117     
111     106     118     
104     112     115     
112     103     114     
109     111     119     
112     114     123     
114     109     120     
108     115     113     
113     115     124     
115     112     123     
117     110     116     
106     117     118     
117     116     122     
111     118     119     
118     117     122     
119     118     125     
109     119     120     
114     120     123     
120     119     126     
122     116     121     
122     121     127     
118     122     125     
115     123     124     
124     123     128     
123     120     128     
119     125     126     
125     122     127     
120     126     128     
126     125     129     
125     127     129     
128     126     131     
126     129     132     
129     127     130     
129     130     133     
131     126     132     
132     129     133     
131     132     134     
132     133     134     
134     133     135     

