Title = " tecplot file for 2D Cavity problem " 
variables = "x", "y", "z", "velX", "cellCentroidY" 
Zone T = "nmesh0" N = 134 E = 223 DATAPACKING = BLOCK, VARLOCATION = ([4-5]=CELLCENTERED),  ZONETYPE=FETRIANGLE 
1.0    0.9649024825    1.0    0.95    0.95155322615    
1.0    0.92177911433    0.9    0.95749200678    1.0    
0.87226824393    0.85    0.9572484407    1.0    0.82219618312    
0.8    0.95696372984    1.0    0.77199475402    0.75    
0.72195093401    0.7    0.95675970876    1.0    0.95688164945    
1.0    0.67197150816    0.65    0.95755698627    1.0    
0.62193949298    0.6    0.95959377415    1.0    0.57236329358    
1.0    0.95945200039    1.0    0.96732120107    0.91582097533    
0.9133527983    0.89627773688    0.91782156923    0.91455680685    0.91426123614    
0.91359975372    0.91349616662    0.91421551885    0.91629100111    0.92245638347    
0.84526518899    0.79400903185    0.74361496428    0.69356203423    0.64373910321    
0.59286509504    0.53807151633    0.87057486204    0.81583309813    0.76505094353    
0.71431985769    0.6649602505    0.61677039554    0.86883619653    0.87066230274    
0.56805308825    0.87249847607    0.87066024693    0.86985479406    0.87026057149    
0.87173328327    0.8740188815    0.83452260875    0.78675489866    0.73380082327    
0.68391918853    0.82405903565    0.63574362176    0.82526906853    0.59322958088    
0.82830603574    0.87359766195    0.82608162102    0.82569617528    0.82706195114    
0.8285477429    0.54938968204    0.82718982092    0.8287191441    0.78320791419    
0.74788912304    0.70295502959    0.65116510576    0.60011687015    0.77998716233    
0.78188085254    0.78401043104    0.73121963088    0.78112107869    0.73540856209    
0.73883927731    0.78450765774    0.67312094014    0.61434151013    0.69489576235    
0.78300081971    0.68591149471    0.44267518442    0.50149406194    0.55884472011    
0.64785825573    0.74192742165    0.73665249203    0.70398345607    0.73926987841    
0.46979219871    0.52169417532    0.56796530247    0.59668872216    0.62751779272    
0.6592260919    0.49319345201    0.54466024892    0.69702479356    0.69240131119    
0.57249702702    0.60240505316    0.51753479009    0.64504433432    0.64867709448    
0.54224118495    0.59647001142    0.60152238429    0.5618446652    
1.0    0.96538400526    0.95    1.0    0.92000601205    
0.9    0.95913369295    1.0    0.86903291872    0.85    
0.95701048188    1.0    0.81995137328    0.8    0.95590742877    
1.0    0.77024877003    0.75    0.95593396956    1.0    
0.9564812879    1.0    0.72009911714    0.7    0.66949183304    
0.65    0.95732543115    1.0    0.61844504415    0.6    
0.95812133767    1.0    0.56783265302    0.55    0.9593733532    
0.45    0.48279214809    0.5    0.52524828361    0.46683219811    
0.41291898701    0.91600608837    0.88258600317    0.83991377622    0.79098435563    
0.74104570727    0.69028227669    0.63842124284    0.58457816469    0.52565479765    
0.91187468859    0.91153407609    0.91214185366    0.91379185358    0.91566984216    
0.91696323584    0.91991572278    0.86629682455    0.86742745263    0.86664992287    
0.86930622211    0.87200935229    0.87531587826    0.39137615969    0.44434380015    
0.8737749857    0.81296847359    0.7630594134    0.71247305247    0.6609412431    
0.60810077634    0.5536017523    0.83043935308    0.81742414419    0.8246807162    
0.82685905417    0.36907390823    0.83137907541    0.42114215162    0.83855543059    
0.78622661388    0.49881568546    0.7357980191    0.68457114667    0.63254850053    
0.57985069778    0.82039372635    0.47386267257    0.52684794462    0.76097110423    
0.78364947962    0.78146635348    0.78429570521    0.79467169092    0.70901105062    
0.65682439085    0.60527804061    0.73541287677    0.44980791583    0.67929764752    
0.62923533916    0.55356110881    0.73824985597    0.73897982284    0.69786106312    
0.50182839444    0.64719166416    0.77773895974    0.7812628525    0.76453172488    
0.68999466862    0.57923162396    0.47810321985    0.60227481054    0.52939615087    
0.7317085805    0.72695267365    0.71857375242    0.68200187547    0.63665376955    
0.59431737623    0.68240404586    0.67830493031    0.55808573722    0.50752877441    
0.63154185281    0.57897227315    0.63349850238    0.48528529386    0.5407051787    
0.58512439681    0.46129907557    0.51739590637    0.5425106701    
0.0    0.0    0.0    0.0    0.0    
0.0    0.0    0.0    0.0    0.0    
0.0    0.0    0.0    0.0    0.0    
0.0    0.0    0.0    0.0    0.0    
0.0    0.0    0.0    0.0    0.0    
0.0    0.0    0.0    0.0    0.0    
0.0    0.0    0.0    0.0    0.0    
0.0    0.0    0.0    0.0    0.0    
0.0    0.0    0.0    0.0    0.0    
0.0    0.0    0.0    0.0    0.0    
0.0    0.0    0.0    0.0    0.0    
0.0    0.0    0.0    0.0    0.0    
0.0    0.0    0.0    0.0    0.0    
0.0    0.0    0.0    0.0    0.0    
0.0    0.0    0.0    0.0    0.0    
0.0    0.0    0.0    0.0    0.0    
0.0    0.0    0.0    0.0    0.0    
0.0    0.0    0.0    0.0    0.0    
0.0    0.0    0.0    0.0    0.0    
0.0    0.0    0.0    0.0    0.0    
0.0    0.0    0.0    0.0    0.0    
0.0    0.0    0.0    0.0    0.0    
0.0    0.0    0.0    0.0    0.0    
0.0    0.0    0.0    0.0    0.0    
0.0    0.0    0.0    0.0    0.0    
0.0    0.0    0.0    0.0    0.0    
0.0    0.0    0.0    0.0    
100.888329073    301.475890014    114.191591422    291.510964349    201.629141836    
55.303114725    67.6400820844    354.611901965    331.345545437    119.452091127    
27.6888067689    42.8364101232    370.142705759    270.290728911    350.854860074    
83.58010441    19.0478081773    31.8932217416    377.413647492    303.133255277    
361.417127212    62.8630452991    14.4449746581    24.90478748    381.891113476    
323.217805162    367.959867934    384.853592418    336.000584414    372.199484783    
49.3439526148    11.409902454    19.9163427055    39.4575122775    9.13221548357    
16.0593019138    386.907875074    344.761161791    375.025191706    31.6960075407    
7.2630943573    12.7929512004    388.320604202    350.803835371    377.113165972    
25.2268602203    5.5104143475    9.44082725377    354.874932186    3.92442262215    
8.16019800759    19.3087031212    3.38245314862    17.1977136256    210.158546707    
266.806889088    171.734369156    113.160144453    186.333851024    86.7162900461    
152.931308311    67.5576339212    116.461032998    53.981596021    92.106765524    
43.6065254902    74.0157316646    35.169950177    59.7851577279    27.502578435    
48.0816998274    37.6882942066    296.016306132    222.471840445    314.821554098    
260.040586196    327.074268768    283.065111119    335.46103828    299.55894452    
340.96297118    310.959013982    345.042849164    319.012968191    323.23340802    
21.8778714319    30.8085562755    226.668760342    148.249666007    258.813931448    
200.852441736    279.061134604    228.247777894    293.821352513    253.481839982    
303.947444809    269.780000741    309.750771448    281.927162359    26.2262317441    
33.2456410708    27.8258355643    34.4125436511    290.12205488    114.45820295    
170.520729648    92.0190331431    137.118767044    74.7426006276    111.545362637    
60.8813768934    90.9805653445    49.3879928433    74.1299446158    39.3981510875    
60.368431209    159.625482088    206.229871248    229.982385253    181.415852722    
251.71808828    210.066819935    266.158594209    229.582673481    277.199477272    
244.491222749    41.5740556556    34.5510575393    278.715939711    257.906194339    
132.20529762    49.6040679412    41.2626571624    108.450711226    150.167361618    
89.0788908138    124.17029124    73.1318033131    101.976411286    60.0394889897    
83.9706384441    174.728408102    258.275342111    49.7510040057    48.4867152626    
69.6224176132    143.47883319    188.148516817    213.218615561    177.076895364    
228.238601575    192.040062015    242.740060843    208.676502223    222.474943274    
118.913306471    158.838593604    98.1941550707    130.651281084    81.4465961988    
108.181100922    58.1046378403    243.21425327    149.768355129    190.473299622    
56.815112751    123.427917258    158.040287272    103.165364508    132.608260823    
67.9012770754    90.1708375815    206.129520691    175.145348828    221.805755663    
187.432002421    146.440571403    173.810703712    63.776511942    75.9612669142    
124.113763559    156.190127564    241.673499941    222.037149228    208.419693426    
181.784787383    86.6640301734    109.864193721    151.20004769    73.1597129762    
104.954508801    125.845125965    79.9382121778    94.2681862105    225.754709351    
215.709916861    207.65774439    195.583948674    189.922371088    191.23922861    
161.992832761    181.381909311    156.576271931    135.757554136    112.740327696    
130.796023482    185.934460637    169.301088512    165.996142598    90.3169493347    
97.024698887    109.115031824    139.709816288    160.00290188    116.73841674    
135.292119437    92.3451157317    97.09112959    145.425051967    110.107994856    
123.55381357    90.8778324695    113.107275332    
0.97293575685    0.989009545398    0.943651585818    0.974706062208    0.947685042806    
0.923644279669    0.896345756178    0.986565886922    0.971952255656    0.891435211434    
0.873520772673    0.845860961223    0.98569063052    0.944130550938    0.97098381177    
0.843355261487    0.823745038228    0.796305729023    0.985230146199    0.941498507355    
0.970670724839    0.794092653159    0.77381361146    0.74636379278    0.985240413417    
0.941041298689    0.970852370139    0.985468889654    0.941446745449    0.971263740463    
0.744157021882    0.723771662669    0.696096168108    0.693664693482    0.673621043172    
0.645496550564    0.985820255085    0.942534488537    0.971739667969    0.642554949463    
0.623375049926    0.594942624852    0.986149712756    0.943798294165    0.972371733475    
0.590884427244    0.573286461272    0.547950270045    0.944892178959    0.476871019464    
0.502458155871    0.540064497569    0.525048713053    0.510746451578    0.931196566645    
0.928155837793    0.90711174099    0.863144564612    0.887642505578    0.816566045568    
0.862926519409    0.767024497595    0.814854833919    0.716754166983    0.765322656756    
0.665652743739    0.714876234022    0.613273480248    0.663464507181    0.558258409876    
0.610540979871    0.554317904788    0.926425835135    0.89779806926    0.926584967985    
0.896947453662    0.927498851472    0.896630040806    0.92889624336    0.898365906033    
0.930085762224    0.90050945381    0.931650473347    0.902890642579    0.903804376403    
0.492892169161    0.497319286326    0.881678046042    0.8398401361    0.881915881882    
0.85541391154    0.882734362913    0.849992929311    0.885084136106    0.853557441828    
0.887687819647    0.855931566224    0.888696659791    0.859493257256    0.441124525651    
0.47024302865    0.416534432059    0.418795316648    0.863015659707    0.788617192143    
0.837541909591    0.7385224582    0.787699253426    0.687613934728    0.737328872897    
0.635563775473    0.68614587304    0.581893659214    0.633935521086    0.526037443243    
0.580445795644    0.809112928396    0.838084657973    0.836197991644    0.811304243919    
0.840344959873    0.808991002886    0.843532665252    0.810868983772    0.84862445767    
0.813827805989    0.446588488606    0.394099968386    0.844080193814    0.820995848042    
0.761361667078    0.526393147593    0.472343764203    0.710725371046    0.761162138823    
0.659242977502    0.709911254177    0.606769583223    0.658031022976    0.553424297496    
0.605868128186    0.788260474084    0.817244227912    0.499861386064    0.448212816349    
0.553388209016    0.734957997235    0.788364781329    0.796884063169    0.758732751864    
0.797522770594    0.766041479586    0.803316836104    0.76800707345    0.772049335555    
0.683465086808    0.735329969782    0.631576279288    0.681869988285    0.579562431061    
0.630447208669    0.500828841618    0.793676574237    0.70806104649    0.751261161284    
0.475192961785    0.655166391964    0.705057170916    0.604718155272    0.652040013938    
0.527373864313    0.579338239311    0.75348021576    0.724568964351    0.765247519911    
0.722589132734    0.673608622641    0.708835889059    0.476528411803    0.528226852282    
0.627144679478    0.677611223741    0.788807840082    0.758098006151    0.741401744472    
0.704452769245    0.553932543558    0.60357873774    0.657750528803    0.503076289698    
0.579441709612    0.615344344105    0.504901232691    0.555456287497    0.763858409091    
0.747289893619    0.737039603439    0.71354308168    0.713373284337    0.707731562356    
0.669158510707    0.692462112731    0.650070592779    0.626454815015    0.584495959531    
0.603003407431    0.696049205701    0.664565942914    0.663656168893    0.531611857252    
0.535197070893    0.56450754699    0.61507775187    0.647624881498    0.571345690562    
0.598264987959    0.511413149119    0.514315501352    0.616731221211    0.546424120492    
0.569590532866    0.488003959038    0.547134253077    
1     2     3     
2     1     4     
3     2     5     
2     4     7     
5     2     7     
3     5     6     
6     5     9     
7     4     8     
7     8     11     
9     5     43     
6     9     10     
10     9     13     
11     8     12     
7     11     42     
11     12     15     
13     9     44     
10     13     14     
14     13     17     
15     12     16     
11     15     51     
15     16     19     
17     13     45     
14     17     18     
18     17     23     
19     16     20     
15     19     52     
19     20     21     
21     20     22     
19     21     53     
21     22     27     
23     17     46     
18     23     24     
24     23     25     
25     23     47     
24     25     26     
26     25     29     
27     22     28     
21     27     54     
27     28     31     
29     25     48     
26     29     30     
30     29     33     
31     28     32     
27     31     55     
31     32     35     
33     29     49     
30     33     34     
34     33     39     
31     35     56     
38     37     36     
37     38     39     
39     33     50     
34     39     38     
37     39     50     
5     7     42     
42     11     51     
5     42     43     
9     43     44     
43     42     58     
13     44     45     
44     43     58     
17     45     46     
45     44     67     
23     46     47     
46     45     68     
25     47     48     
47     46     69     
29     48     49     
48     47     70     
33     49     50     
49     48     71     
50     49     72     
51     15     52     
42     51     58     
52     19     53     
51     52     59     
53     21     54     
52     53     60     
54     27     55     
53     54     61     
55     31     56     
54     55     62     
56     35     57     
55     56     63     
56     57     66     
37     50     40     
40     50     82     
58     51     59     
44     58     67     
59     52     60     
58     59     73     
60     53     61     
59     60     74     
61     54     62     
60     61     75     
62     55     63     
61     62     76     
63     56     66     
62     63     78     
40     65     41     
65     40     82     
41     65     64     
64     65     79     
63     66     80     
45     67     68     
67     58     73     
46     68     69     
68     67     81     
47     69     70     
69     68     83     
48     70     71     
70     69     84     
49     71     72     
71     70     85     
50     72     82     
72     71     86     
67     73     81     
73     59     74     
74     60     75     
73     74     81     
75     61     76     
74     75     91     
76     62     78     
75     76     92     
78     63     80     
76     78     93     
79     65     88     
64     79     77     
80     66     87     
78     80     94     
68     81     83     
82     72     89     
65     82     88     
69     83     84     
83     81     90     
70     84     85     
84     83     95     
71     85     86     
85     84     96     
72     86     89     
86     85     97     
81     74     90     
80     87     94     
88     82     89     
79     88     99     
89     86     102     
83     90     95     
90     74     91     
91     75     92     
90     91     98     
92     76     93     
91     92     98     
93     78     94     
92     93     103     
93     94     104     
84     95     96     
95     90     98     
85     96     97     
96     95     100     
86     97     102     
97     96     101     
88     89     106     
94     87     110     
95     98     100     
98     92     103     
99     88     106     
96     100     101     
100     98     105     
97     101     112     
101     100     107     
89     102     106     
102     97     112     
103     93     104     
98     103     105     
104     94     110     
103     104     111     
100     105     107     
105     103     111     
99     106     113     
106     102     115     
101     107     114     
107     105     111     
110     87     109     
110     109     117     
104     110     118     
111     104     119     
102     112     115     
112     101     114     
107     111     120     
113     106     115     
112     114     124     
114     107     121     
113     115     125     
115     112     124     
116     109     108     
109     116     117     
110     117     118     
117     116     122     
104     118     119     
118     117     123     
111     119     120     
119     118     123     
120     119     126     
107     120     121     
114     121     124     
121     120     127     
117     122     123     
123     122     128     
119     123     126     
115     124     125     
125     124     130     
124     121     130     
120     126     127     
126     123     128     
121     127     130     
127     126     131     
125     130     129     
129     130     133     
126     128     131     
130     127     133     
127     131     134     
129     133     132     
133     127     134     

