Title = " tecplot file for 2D Cavity problem " 
variables = "x", "y", "z", "velX", "cellCentroidY" 
Zone T = "nmesh0" N = 136 E = 224 DATAPACKING = BLOCK, VARLOCATION = ([4-5]=CELLCENTERED),  ZONETYPE=FETRIANGLE 
0.0    0.035120710962    0.0    0.05    0.04850221109    
0.0    0.078287686615    0.1    0.042566966379    0.0    
0.12788545027    0.15    0.17812634295    0.2    0.042855164531    
0.0    0.043265203007    0.0    0.22863468468    0.25    
0.27918417339    0.3    0.043716340134    0.0    0.32987154002    
0.35    0.043978297298    0.0    0.0    0.043125596187    
0.0    0.38077260587    0.4    0.043900391451    0.0    
0.61821894362    0.6    0.042696040807    0.0    0.56761657638    
0.55    0.040827231248    0.0    0.043210541015    0.0    
0.43194375582    0.45    0.041038258844    0.0    0.48257865397    
0.5    0.52507673384    0.033089394567    0.58411329204    0.52522490341    
0.085997155059    0.084433994566    0.078494046162    0.10387432614    0.082296730711    
0.085587598548    0.086008722902    0.087025928968    0.08777763524    0.087990307918    
0.087376044163    0.085171824248    0.15505514023    0.20664380416    0.25768999056    
0.30888281734    0.36030518618    0.41245481225    0.46636757865    0.12962771948    
0.18451657268    0.23568390455    0.28735909426    0.33877361245    0.39065935698    
0.44357612361    0.12744562348    0.55285353766    0.12769678517    0.12978926133    
0.13132652742    0.13214282958    0.13205221684    0.13078968425    0.16562942921    
0.21324590735    0.26631645838    0.3169264893    0.36812645846    0.42002588822    
0.12805979168    0.171790632    0.4980530852    0.17443889675    0.17621651281    
0.17683335109    0.17651444769    0.47270392277    0.52573377836    0.17371339113    
0.17509631968    0.21634824514    0.2511933642    0.29510139011    0.34529000254    
0.39635736997    0.22032305362    0.22132052015    0.22220198124    0.26682786721    
0.44811466774    0.22166577428    0.21891561674    0.22022735401    0.26452305333    
0.26771250719    0.321449226    0.37224447136    0.30207338081    0.31212385967    
0.3470621132    0.26849227775    0.26510548457    0.42364937364    0.31649861763    
0.26697695529    0.39821088213    0.31433362026    0.31166350229    0.36831459502    
0.36265881994    
0.0    0.034603056938    0.05    0.0    0.079952230082    
0.1    0.040847230977    0.0    0.13089051798    0.15    
0.042991554535    0.0    0.044188135119    0.0    0.17993069747    
0.2    0.22957727669    0.25    0.044394215363    0.0    
0.044276403983    0.0    0.27961726365    0.3    0.044001432648    
0.0    0.33000821124    0.35    0.7    0.66937863599    
0.65    0.043596310128    0.0    0.38078558888    0.4    
0.042552465016    0.0    0.61828263871    0.6    0.040486587209    
0.0    0.56764431838    0.55    0.43193171668    0.45    
0.042750101602    0.0    0.48258028307    0.5    0.040562825526    
0.0    0.032738522826    0.52509173794    0.083867418262    0.077612739054    
0.63822857773    0.58428543544    0.5252821822    0.083930719754    0.11730383291    
0.15989790134    0.20873203944    0.25853149504    0.30900375878    0.36017366743    
0.41231729187    0.46632046215    0.088118597995    0.088703707954    0.088677574682    
0.088088980433    0.087499787678    0.086465144918    0.084115531867    0.13354273209    
0.13252359398    0.13373329599    0.13218098955    0.13155127065    0.1307208557    
0.12908883673    0.5531581276    0.12610367492    0.18671167731    0.23646814222    
0.28687923294    0.33805771312    0.39011050386    0.44331509518    0.16929480836    
0.18236095365    0.17587092392    0.17549646507    0.17512743302    0.17418630145    
0.49810145703    0.21329728861    0.12633330032    0.26353762278    0.31471008597    
0.36667255304    0.41923294404    0.17248305254    0.17121780781    0.52615199079    
0.47253147157    0.23832528611    0.21604052276    0.21912803268    0.21928338163    
0.21934360192    0.28997196743    0.34245956561    0.39469947697    0.26347638928    
0.21817994343    0.44737109031    0.5533941137    0.5004129341    0.31815531262    
0.36975058489    0.26202612804    0.26449088231    0.29903444147    0.34396675841    
0.30877270069    0.42205759217    0.52811193295    0.26426585981    0.39558089953    
0.47513794685    0.31189818455    0.44991134885    0.50343256554    0.36419194497    
0.42477109513    
0.0    0.0    0.0    0.0    0.0    
0.0    0.0    0.0    0.0    0.0    
0.0    0.0    0.0    0.0    0.0    
0.0    0.0    0.0    0.0    0.0    
0.0    0.0    0.0    0.0    0.0    
0.0    0.0    0.0    0.0    0.0    
0.0    0.0    0.0    0.0    0.0    
0.0    0.0    0.0    0.0    0.0    
0.0    0.0    0.0    0.0    0.0    
0.0    0.0    0.0    0.0    0.0    
0.0    0.0    0.0    0.0    0.0    
0.0    0.0    0.0    0.0    0.0    
0.0    0.0    0.0    0.0    0.0    
0.0    0.0    0.0    0.0    0.0    
0.0    0.0    0.0    0.0    0.0    
0.0    0.0    0.0    0.0    0.0    
0.0    0.0    0.0    0.0    0.0    
0.0    0.0    0.0    0.0    0.0    
0.0    0.0    0.0    0.0    0.0    
0.0    0.0    0.0    0.0    0.0    
0.0    0.0    0.0    0.0    0.0    
0.0    0.0    0.0    0.0    0.0    
0.0    0.0    0.0    0.0    0.0    
0.0    0.0    0.0    0.0    0.0    
0.0    0.0    0.0    0.0    0.0    
0.0    0.0    0.0    0.0    0.0    
0.0    0.0    0.0    0.0    0.0    
0.0    
0.147678756269    0.139087238725    0.743818190007    0.655383858612    1.29201979165    
0.6123240297    1.48949463393    0.458452308378    1.3073901592    2.94003583418    
0.862008126991    2.10177176213    0.796875933712    2.56987867286    1.93828331292    
1.12282179612    3.91178227255    2.50342294149    4.21550922674    1.21653401102    
2.85088415058    5.69119681549    1.62203826258    3.69240997762    1.39371423912    
5.06590448105    2.97939590804    1.61116856461    6.03149730556    3.36305965365    
7.38671894054    2.08492342935    4.6374244129    1.77350410925    6.78235400866    
3.64543595918    9.29493598787    2.59864688144    5.69357952632    9.15447745322    
16.1119481268    1.87521593644    7.32787811989    3.80411265589    11.4121879149    
3.14768216593    6.84144173694    7.3407678391    31.8249276979    12.8580652192    
3.64261327648    7.28508633269    1.70345523743    3.28574227898    5.5973519748    
25.4638795831    9.48100297896    13.6965057645    3.67631572631    7.93331694771    
1.88942848108    7.61634513431    3.77192692083    15.9510764457    3.98751497599    
8.20596234081    1.74970008436    7.55245367857    3.31790390203    6.86671481918    
1.27228522031    3.44284328087    19.5241772134    6.93112018336    17.3707344178    
2.46005437632    9.26161191506    13.0753942052    35.3487675363    27.7121773589    
38.0867759005    4.15666533643    3.25678707783    4.44629879642    5.46393970631    
6.21493107969    6.25807414459    8.20298951698    8.61474108569    10.453358008    
11.3794337993    12.9940833864    14.5205140491    15.8479990024    18.0613044186    
18.9864153664    22.0267618494    22.0559355143    26.4151849475    5.7109889352    
5.87169654797    7.02540763415    8.05345082747    8.10421194151    9.97394142382    
8.93642684316    11.4388019735    9.50530706182    12.5974704257    9.73893611458    
13.3770180875    9.41710223776    13.6713197132    13.284214479    31.1327900938    
8.21125946786    8.44741163562    10.5131604463    10.1785448102    12.4427092561    
13.5213378446    13.9538810617    15.7302180818    15.0994280294    17.6363966748    
15.8067443464    19.0917146944    15.9784581377    19.9837665569    39.7351486078    
15.4849025966    11.4370713685    10.3206204543    14.8089866012    14.0325643243    
18.6362527592    18.2303853093    22.9768939021    22.9916091888    27.9046844222    
28.3747991356    33.4752448417    34.517799777    13.4150385355    13.4593896176    
16.465881212    15.3798138075    18.6646961573    19.7275187011    20.5318240224    
22.3945825885    21.869015675    24.6643851101    22.5693055736    26.3191644697    
50.1449984771    41.5942080698    17.6939954132    20.0574075146    20.2400958388    
22.6028584019    20.3949700805    28.1658489594    26.2044728828    34.4990660013    
32.6828077453    41.7540873653    40.1305204651    18.9421456111    22.5950232909    
27.1806918055    50.171152773    58.6290481166    48.6799103394    24.9237654072    
20.7548858763    22.9533254174    25.8584370618    25.737895953    26.7886488206    
27.897004763    29.9564354715    29.2866864356    32.6470149809    31.4788999082    
27.7929511825    38.8982237534    35.0526980735    47.3641854491    43.4636641339    
33.0808924202    30.6176902775    34.3149395178    57.1351813734    53.0779100259    
68.6404996326    76.7831494687    41.3032088415    35.833146077    50.5968290348    
44.6851710406    33.8154857905    34.5773717441    36.1634852701    38.7618998168    
64.0450678087    42.1021484877    39.3017756091    51.6161564241    43.6236057538    
43.1480215726    55.120492745    61.296269253    73.6554603991    41.7701930111    
49.8258113264    54.7845363047    62.995392865    80.1779033195    66.8353707612    
49.7207901348    67.3107211127    76.0171999739    62.2985147637    
0.0270625246701    0.0109857190957    0.0563280658407    0.0252876019336    0.0522843574925    
0.0763453391183    0.10360888115    0.0134265997087    0.0280492025543    0.108498371511    
0.126461561188    0.154066935765    0.0143108398092    0.0558317838571    0.0290575057112    
0.0148112293581    0.0585136021545    0.0294746648637    0.156523114657    0.176227651333    
0.203589710918    0.205720445687    0.22614719602    0.253473854886    0.0149000272318    
0.0591579193842    0.0294982319862    0.0148537338012    0.0591745601183    0.0293887755788    
0.255553903934    0.276166185232    0.303620114876    0.0147430984742    0.0588091491041    
0.0291986116876    0.30584948768    0.326271161401    0.354037150961    0.673592263758    
0.645377408383    0.014580740044    0.0583556675601    0.0288376315527    0.356602212612    
0.376468336173    0.404729611362    0.623326836287    0.642420398001    0.594807742275    
0.0278071832962    0.0555989494658    0.013310549846    0.0245097225482    0.573226385352    
0.590678208175    0.547827924798    0.407893923261    0.426742662529    0.455324501018    
0.0142392495887    0.057555144304    0.0278868491581    0.459675010346    0.476836076458    
0.502308241274    0.0133438870686    0.0557856051643    0.0245273962766    0.0511306542913    
0.0101868072806    0.525018218297    0.539788159849    0.0511674512224    0.51053810093    
0.0687700940793    0.0678756025335    0.0953758698734    0.613016367785    0.557961850534    
0.553973496956    0.0718378987128    0.0928097521987    0.136723003384    0.112253420153    
0.18323346139    0.136916602412    0.232686959561    0.184880014555    0.282782203726    
0.23427005287    0.333463471517    0.284495235167    0.384861691074    0.335441277182    
0.437410798711    0.387245511606    0.492477123753    0.440443568139    0.0737065757199    
0.102099819206    0.0739087361973    0.103072885807    0.0736838861987    0.103784159683    
0.073237148282    0.10295398938    0.0726331766396    0.102332620041    0.0713724990062    
0.101465110699    0.0679704862997    0.0996788060723    0.0955461199675    0.496822464743    
0.118267574592    0.159931372373    0.118314204096    0.144408001935    0.118219483831    
0.149972672105    0.117318671937    0.147139024037    0.116677189157    0.146350487065    
0.115592206443    0.145734698232    0.113440129843    0.144548956956    0.525496831749    
0.109919531682    0.211030628806    0.162215996737    0.260999913236    0.211865431843    
0.311665278227    0.262030794391    0.363113796426    0.312971887779    0.415556221823    
0.364734667972    0.46946652643    0.417424694821    0.161744448899    0.190522705384    
0.164064196359    0.188370039445    0.161193970848    0.190955174716    0.160760486263    
0.190144237541    0.160081738641    0.189945671464    0.158689743123    0.189536857035    
0.525801439536    0.471349629553    0.238122967597    0.141020224714    0.142437957033    
0.288693975076    0.238203232243    0.340083821389    0.289210493742    0.39222888356    
0.341087470829    0.445149068985    0.393412692129    0.211244471922    0.156711547046    
0.188220876512    0.498932263597    0.499706972615    0.446355172052    0.264286029446    
0.211228594825    0.203387269617    0.240491432054    0.204608935268    0.233652729453    
0.204583302177    0.233426665293    0.203918299067    0.234454228792    0.315916922499    
0.263690605408    0.368168787454    0.316613829419    0.420547219401    0.368812373682    
0.290443855154    0.248508044927    0.233988638166    0.473448478162    0.421333297458    
0.52662106164    0.527298748705    0.343808974537    0.292656997601    0.395656006901    
0.343728225006    0.24862152819    0.274146140167    0.249321036626    0.278544498382    
0.474307732496    0.321316933954    0.289994177008    0.370079631012    0.317487349483    
0.294946932562    0.39576406261    0.448181312024    0.501187201439    0.280478668612    
0.339739618554    0.367887542219    0.422418097464    0.502210255043    0.449038489094    
0.329190254978    0.423410032863    0.476097660738    0.394327921241    
1     2     3     
2     1     4     
3     2     5     
2     4     7     
5     2     7     
3     5     6     
6     5     9     
7     4     8     
7     8     11     
9     5     60     
6     9     10     
10     9     15     
11     8     12     
7     11     59     
11     12     13     
13     12     14     
11     13     68     
13     14     19     
15     9     61     
10     15     16     
16     15     17     
17     15     62     
16     17     18     
18     17     23     
19     14     20     
13     19     69     
19     20     21     
21     20     22     
19     21     70     
21     22     25     
23     17     63     
18     23     24     
24     23     27     
25     22     26     
21     25     71     
25     26     32     
27     23     64     
24     27     28     
28     27     34     
31     30     29     
30     31     38     
32     26     33     
25     32     72     
32     33     46     
34     27     65     
28     34     35     
35     34     44     
38     31     39     
30     38     56     
38     39     42     
36     40     37     
40     36     54     
37     40     41     
41     40     52     
42     39     43     
38     42     57     
42     43     53     
44     34     66     
35     44     45     
45     44     48     
46     33     47     
32     46     73     
46     47     50     
48     44     67     
45     48     49     
49     48     53     
50     47     51     
46     50     74     
50     51     52     
52     40     55     
41     52     51     
53     43     49     
42     53     58     
50     52     55     
53     48     58     
5     7     59     
40     54     55     
55     54     83     
56     38     57     
57     42     58     
57     58     82     
59     11     68     
5     59     60     
9     60     61     
60     59     75     
15     61     62     
61     60     75     
17     62     63     
62     61     84     
23     63     64     
63     62     85     
27     64     65     
64     63     86     
34     65     66     
65     64     87     
44     66     67     
66     65     88     
48     67     58     
67     66     89     
68     13     69     
59     68     75     
69     19     70     
68     69     76     
70     21     71     
69     70     77     
71     25     72     
70     71     78     
72     32     73     
71     72     79     
73     46     74     
72     73     80     
74     50     55     
73     74     81     
74     55     98     
58     67     96     
75     68     76     
61     75     84     
76     69     77     
75     76     90     
77     70     78     
76     77     91     
78     71     79     
77     78     92     
79     72     80     
78     79     93     
80     73     81     
79     80     94     
81     74     98     
80     81     95     
82     58     96     
55     83     98     
62     84     85     
84     75     90     
63     85     86     
85     84     97     
64     86     87     
86     85     99     
65     87     88     
87     86     100     
66     88     89     
88     87     101     
67     89     96     
89     88     102     
90     76     91     
84     90     97     
91     77     92     
90     91     97     
92     78     93     
91     92     108     
93     79     94     
92     93     109     
94     80     95     
93     94     110     
95     81     103     
94     95     111     
82     96     105     
96     89     106     
85     97     99     
98     83     104     
81     98     103     
86     99     100     
99     97     107     
87     100     101     
100     99     112     
88     101     102     
101     100     113     
89     102     106     
102     101     114     
97     91     107     
103     98     104     
95     103     116     
105     96     106     
105     106     119     
106     102     117     
99     107     112     
107     91     108     
108     92     109     
107     108     115     
109     93     110     
108     109     115     
110     94     111     
109     110     122     
111     95     116     
110     111     123     
100     112     113     
112     107     115     
101     113     114     
113     112     120     
102     114     117     
114     113     121     
112     115     120     
115     109     122     
111     116     129     
106     117     119     
117     114     127     
105     119     118     
118     119     128     
113     120     121     
120     115     124     
114     121     127     
121     120     125     
122     110     123     
115     122     124     
123     111     129     
122     123     126     
119     117     131     
120     124     125     
124     122     126     
121     125     130     
125     124     126     
126     123     132     
127     121     130     
117     127     131     
128     119     131     
123     129     132     
125     126     135     
130     125     135     
127     130     133     
128     131     134     
131     127     133     
126     132     135     
133     130     136     
131     133     134     
130     135     136     

