Title = " tecplot file for 2D Cavity problem " 
variables = "x", "y", "z", "velX", "cellCentroidY" 
Zone T = "nmesh0" N = 133 E = 223 DATAPACKING = BLOCK, VARLOCATION = ([4-5]=CELLCENTERED), ZONETYPE=FETRIANGLE
0.0    0.035120710962    0.0    0.05    0.04850221109    
0.0    0.078287686615    0.1    0.042566966379    0.0    
0.12788545027    0.15    0.17812634295    0.2    0.042855164531    
0.0    0.043265203007    0.0    0.22863468468    0.25    
0.27918417339    0.3    0.043716340134    0.0    0.32987154002    
0.35    0.043978297298    0.0    0.38077260587    0.4    
0.043900391451    0.0    0.043210541015    0.43194375582    0.45    
0.10387432614    0.082296730711    0.085587598548    0.086008722902    0.087025928968    
0.08777763524    0.087990307918    0.087376044163    0.085171824248    0.15505514023    
0.20664380416    0.25768999056    0.30888281734    0.36030518618    0.41245481225    
0.46636757865    0.12962771948    0.18451657268    0.23568390455    0.28735909426    
0.33877361245    0.39065935698    0.44357612361    0.12769678517    0.12978926133    
0.13132652742    0.13214282958    0.13205221684    0.13078968425    0.16562942921    
0.21324590735    0.26631645838    0.3169264893    0.36812645846    0.42002588822    
0.12805979168    0.171790632    0.17443889675    0.17621651281    0.17683335109    
0.17651444769    0.47270392277    0.17371339113    0.17509631968    0.21634824514    
0.2511933642    0.29510139011    0.34529000254    0.39635736997    0.22032305362    
0.22132052015    0.22220198124    0.26682786721    0.44811466774    0.50020610709    
0.22166577428    0.21891561674    0.22022735401    0.26452305333    0.26771250719    
0.321449226    0.37224447136    0.30207338081    0.31212385967    0.3470621132    
0.26849227775    0.26351713675    0.26510548457    0.47570647776    0.42364937364    
0.31649861763    0.30930861693    0.26697695529    0.50411884888    0.45164534644    
0.39821088213    0.31433362026    0.31166350229    0.36831459502    0.42805295981    
0.48190607441    0.35233111223    0.35555275566    0.36265881994    0.41245726179    
0.46300260783    0.35878475577    0.39861785617    0.40576697846    0.45337011442    
0.49534090515    0.40305208591    0.48724078267    0.51058041495    0.44744144141    
0.4990264969    0.45106460202    0.47769451169    
0.0    0.034603056938    0.05    0.0    0.079952230082    
0.1    0.040847230977    0.0    0.13089051798    0.15    
0.042991554535    0.0    0.044188135119    0.0    0.17993069747    
0.2    0.22957727669    0.25    0.044394215363    0.0    
0.044276403983    0.0    0.27961726365    0.3    0.044001432648    
0.0    0.33000821124    0.35    0.043596310128    0.0    
0.38078558888    0.4    0.43193171668    0.042750101602    0.0    
0.083930719754    0.11730383291    0.15989790134    0.20873203944    0.25853149504    
0.30900375878    0.36017366743    0.41231729187    0.46632046215    0.088118597995    
0.088703707954    0.088677574682    0.088088980433    0.087499787678    0.086465144918    
0.084115531867    0.13354273209    0.13252359398    0.13373329599    0.13218098955    
0.13155127065    0.1307208557    0.12908883673    0.18671167731    0.23646814222    
0.28687923294    0.33805771312    0.39011050386    0.44331509518    0.16929480836    
0.18236095365    0.17587092392    0.17549646507    0.17512743302    0.17418630145    
0.49810145703    0.21329728861    0.26353762278    0.31471008597    0.36667255304    
0.41923294404    0.17248305254    0.52615199079    0.47253147157    0.23832528611    
0.21604052276    0.21912803268    0.21928338163    0.21934360192    0.28997196743    
0.34245956561    0.39469947697    0.26347638928    0.21817994343    0.21652383965    
0.44737109031    0.5533941137    0.5004129341    0.31815531262    0.36975058489    
0.26202612804    0.26449088231    0.29903444147    0.34396675841    0.30877270069    
0.42205759217    0.58072352869    0.52811193295    0.26206796087    0.26426585981    
0.39558089953    0.5561978634    0.47513794685    0.30489372621    0.30825562625    
0.31189818455    0.44991134885    0.50343256554    0.36419194497    0.35590734171    
0.34987065498    0.58427045201    0.53240491567    0.42477109513    0.40619186935    
0.3950189306    0.47978820868    0.5609960485    0.45877128618    0.44283363007    
0.42892718502    0.51107700524    0.58765603511    0.53507553622    0.49016456785    
0.47644982963    0.5431305004    0.51161072661    
0.0    0.0    0.0    0.0    0.0    
0.0    0.0    0.0    0.0    0.0    
0.0    0.0    0.0    0.0    0.0    
0.0    0.0    0.0    0.0    0.0    
0.0    0.0    0.0    0.0    0.0    
0.0    0.0    0.0    0.0    0.0    
0.0    0.0    0.0    0.0    0.0    
0.0    0.0    0.0    0.0    0.0    
0.0    0.0    0.0    0.0    0.0    
0.0    0.0    0.0    0.0    0.0    
0.0    0.0    0.0    0.0    0.0    
0.0    0.0    0.0    0.0    0.0    
0.0    0.0    0.0    0.0    0.0    
0.0    0.0    0.0    0.0    0.0    
0.0    0.0    0.0    0.0    0.0    
0.0    0.0    0.0    0.0    0.0    
0.0    0.0    0.0    0.0    0.0    
0.0    0.0    0.0    0.0    0.0    
0.0    0.0    0.0    0.0    0.0    
0.0    0.0    0.0    0.0    0.0    
0.0    0.0    0.0    0.0    0.0    
0.0    0.0    0.0    0.0    0.0    
0.0    0.0    0.0    0.0    0.0    
0.0    0.0    0.0    0.0    0.0    
0.0    0.0    0.0    0.0    0.0    
0.0    0.0    0.0    0.0    0.0    
0.0    0.0    0.0    
0.147678754756    0.139087237328    0.743818182329    0.655383852095    1.29201977846    
0.612324023267    1.48949461837    0.458452304042    1.30739014713    2.94003580343    
0.862008117928    2.10177174057    0.79687592705    2.56987864863    1.93828329752    
1.1228217885    3.91178224064    2.50342292717    4.21550918368    1.21653399881    
2.85088412283    5.69119676023    1.62203824739    3.69240994472    1.3937142335    
5.06590445097    2.97939590126    1.61116856481    6.03149729017    3.36305966323    
7.38671887461    2.08492341197    4.63742437741    1.77350412043    6.78235402532    
3.64543599704    9.29493591581    2.5986468641    5.69357949479    1.87521596492    
7.32787819201    3.80411273538    11.4121878463    3.14768215608    6.84144173552    
13.6965057364    1.88942853193    7.61634528826    2.46005435125    4.15666529847    
3.25678704402    4.44629875025    5.46393965333    6.21493101756    6.25807408245    
8.20298943995    8.6147410024    10.4533579198    11.3794336952    12.9940832946    
14.5205139286    15.8479989231    18.0613042918    18.9864153638    22.0267617381    
26.4151849169    5.710988893    5.87169649362    7.02540760178    8.05345076693    
8.1042119376    9.9739413747    8.93642689292    11.4388019607    9.50530720005    
12.5974704814    9.73893637784    13.377018263    13.6713200567    8.21125939731    
8.4474115534    10.513160378    10.1785447219    12.4427092129    13.521337753    
13.9538810754    15.7302180189    15.099428142    17.6363966726    15.8067446379    
19.0917147986    19.9837668429    11.4370712611    10.320620359    14.8089864718    
14.0325641999    18.6362526149    18.230385157    22.9768937588    22.9916090142    
27.9046843111    28.3747989514    33.4752448264    34.517799617    13.4150384311    
13.4593894993    16.4658811174    15.3798136843    18.6646961092    19.7275185853    
20.5318240588    22.3945825169    21.8690158497    24.6643851216    22.5693059715    
26.3191646051    41.5942080188    17.6939952641    22.6028582233    20.3949699214    
28.1658487591    26.2044726874    34.4990657944    32.6828075202    41.7540872073    
40.1305202305    18.9421454675    27.1806921522    50.1711527327    58.6290481195    
48.6799101609    24.9237652222    20.7548857358    22.95332531    25.8584369058    
25.7378959053    26.7886486873    27.8970048174    29.9564354008    29.2866866221    
32.6470150001    31.4788996852    27.7929510001    38.898223502    35.0526978441    
47.3641852052    43.4636638566    33.080892219    30.6176901551    29.825941861    
34.3149397358    34.8946160265    57.135181232    53.0779097449    68.6404997267    
76.7831496119    41.3032085792    35.8331458924    50.596828719    44.6851707859    
33.8154857507    34.5773715989    36.1634853162    38.7618997496    64.0450676485    
42.1021482774    39.3017754889    51.6161561196    43.6236055875    43.1480215415    
55.1204924138    61.2962689797    73.6554603295    88.0796821517    95.6065761306    
37.3946964236    42.9625994226    41.7701930734    49.8258111296    54.7845359839    
62.9953925022    90.8710868052    80.1779033303    66.835370457    46.0738777854    
45.4865562404    52.0105245536    51.7238951278    49.7207900308    67.3107206677    
76.0171996701    96.7497143367    62.2985143162    54.5863627104    55.4685731163    
61.8483408688    61.9744000652    81.1232189055    91.2675151766    108.256569292    
113.343733745    65.7648050259    76.2073301508    65.9415440874    75.197748081    
73.7340365924    80.0724106368    95.8247887437    106.526579409    78.3936870714    
90.0784544962    76.1878169815    87.3490307522    84.4569855102    93.083449674    
110.846548914    90.0499710211    103.843841495    97.3582245923    104.494665691    
120.301464565    111.302260395    102.552293412    
0.0270625246701    0.0109857190957    0.0563280658407    0.0252876019336    0.0522843574925    
0.0763453391183    0.10360888115    0.0134265997087    0.0280492025543    0.108498371511    
0.126461561188    0.154066935765    0.0143108398092    0.0558317838571    0.0290575057112    
0.0148112293581    0.0585136021545    0.0294746648637    0.156523114657    0.176227651333    
0.203589710918    0.205720445687    0.22614719602    0.253473854886    0.0149000272318    
0.0591579193842    0.0294982319862    0.0148537338012    0.0591745601183    0.0293887755788    
0.255553903934    0.276166185232    0.303620114876    0.0147430984742    0.0588091491041    
0.0291986116876    0.30584948768    0.326271161401    0.354037150961    0.014580740044    
0.0583556675601    0.0288376315527    0.356602212612    0.376468336173    0.404729611362    
0.407893923261    0.0142392495887    0.057555144304    0.0687700940793    0.0718378987128    
0.0928097521987    0.136723003384    0.112253420153    0.18323346139    0.136916602412    
0.232686959561    0.184880014555    0.282782203726    0.23427005287    0.333463471517    
0.284495235167    0.384861691074    0.335441277182    0.437410798711    0.387245511606    
0.440443568139    0.0737065757199    0.102099819206    0.0739087361973    0.103072885807    
0.0736838861987    0.103784159683    0.073237148282    0.10295398938    0.0726331766396    
0.102332620041    0.0713724990062    0.101465110699    0.0996788060723    0.118267574592    
0.159931372373    0.118314204096    0.144408001935    0.118219483831    0.149972672105    
0.117318671937    0.147139024037    0.116677189157    0.146350487065    0.115592206443    
0.145734698232    0.144548956956    0.211030628806    0.162215996737    0.260999913236    
0.211865431843    0.311665278227    0.262030794391    0.363113796426    0.312971887779    
0.415556221823    0.364734667972    0.46946652643    0.417424694821    0.161744448899    
0.190522705384    0.164064196359    0.188370039445    0.161193970848    0.190955174716    
0.160760486263    0.190144237541    0.160081738641    0.189945671464    0.158689743123    
0.189536857035    0.471349629553    0.238122967597    0.288693975076    0.238203232243    
0.340083821389    0.289210493742    0.39222888356    0.341087470829    0.445149068985    
0.393412692129    0.211244471922    0.188220876512    0.498932263597    0.499706972615    
0.446355172052    0.264286029446    0.211228594825    0.203387269617    0.240491432054    
0.204608935268    0.233652729453    0.204583302177    0.233426665293    0.203918299067    
0.234454228792    0.315916922499    0.263690605408    0.368168787454    0.316613829419    
0.420547219401    0.368812373682    0.290443855154    0.248508044927    0.202415689256    
0.233988638166    0.232225066039    0.473448478162    0.421333297458    0.52662106164    
0.527298748705    0.343808974537    0.292656997601    0.395656006901    0.343728225006    
0.24862152819    0.274146140167    0.249321036626    0.278544498382    0.474307732496    
0.321316933954    0.289994177008    0.370079631012    0.317487349483    0.294946932562    
0.39576406261    0.448181312024    0.501187201439    0.554047835495    0.554973661775    
0.248181514136    0.278197427896    0.280478668612    0.339739618554    0.367887542219    
0.422418097464    0.529221453892    0.502210255043    0.449038489094    0.2918230972    
0.294863736437    0.320847808839    0.325316851783    0.329190254978    0.423410032863    
0.476097660738    0.530626692923    0.394327921241    0.344416489459    0.338203392855    
0.375217615719    0.36665117396    0.477637658409    0.505197993196    0.557572698807    
0.559232333717    0.397626605315    0.451418614889    0.38563504945    0.430038026829    
0.414799475717    0.454124753941    0.507584000887    0.534781617799    0.435530064143    
0.483433837984    0.42195686796    0.464019055421    0.450339979347    0.486386547044    
0.53831707291    0.469721250309    0.515504312808    0.491613074717    0.515567440015    
0.555044106482    0.531194500085    0.507374583556    
1     2     3     
2     1     4     
3     2     5     
2     4     7     
5     2     7     
3     5     6     
6     5     9     
7     4     8     
7     8     11     
9     5     37     
6     9     10     
10     9     15     
11     8     12     
7     11     36     
11     12     13     
13     12     14     
11     13     45     
13     14     19     
15     9     38     
10     15     16     
16     15     17     
17     15     39     
16     17     18     
18     17     23     
19     14     20     
13     19     46     
19     20     21     
21     20     22     
19     21     47     
21     22     25     
23     17     40     
18     23     24     
24     23     27     
25     22     26     
21     25     48     
25     26     29     
27     23     41     
24     27     28     
28     27     31     
29     26     30     
25     29     49     
29     30     34     
31     27     42     
28     31     32     
32     31     33     
33     31     43     
34     30     35     
29     34     50     
5     7     36     
36     11     45     
5     36     37     
9     37     38     
37     36     52     
15     38     39     
38     37     52     
17     39     40     
39     38     59     
23     40     41     
40     39     60     
27     41     42     
41     40     61     
31     42     43     
42     41     62     
33     43     44     
43     42     63     
44     43     64     
45     13     46     
36     45     52     
46     19     47     
45     46     53     
47     21     48     
46     47     54     
48     25     49     
47     48     55     
49     29     50     
48     49     56     
50     34     51     
49     50     57     
50     51     58     
52     45     53     
38     52     59     
53     46     54     
52     53     65     
54     47     55     
53     54     66     
55     48     56     
54     55     67     
56     49     57     
55     56     68     
57     50     58     
56     57     69     
57     58     70     
39     59     60     
59     52     65     
40     60     61     
60     59     72     
41     61     62     
61     60     73     
42     62     63     
62     61     74     
43     63     64     
63     62     75     
44     64     71     
64     63     76     
65     53     66     
59     65     72     
66     54     67     
65     66     72     
67     55     68     
66     67     81     
68     56     69     
67     68     82     
69     57     70     
68     69     83     
70     58     77     
69     70     84     
71     64     79     
60     72     73     
61     73     74     
73     72     80     
62     74     75     
74     73     85     
63     75     76     
75     74     86     
64     76     79     
76     75     87     
72     66     80     
70     77     89     
71     79     78     
78     79     93     
79     76     91     
73     80     85     
80     66     81     
81     67     82     
80     81     88     
82     68     83     
81     82     88     
83     69     84     
82     83     96     
84     70     89     
83     84     97     
74     85     86     
85     80     88     
75     86     87     
86     85     94     
76     87     91     
87     86     95     
85     88     94     
88     82     96     
89     77     90     
84     89     105     
89     90     104     
79     91     93     
91     87     101     
78     93     92     
92     93     103     
86     94     95     
94     88     98     
87     95     101     
95     94     99     
96     83     97     
88     96     98     
97     84     105     
96     97     100     
93     91     108     
94     98     99     
98     96     100     
95     99     106     
99     98     100     
100     97     111     
101     95     106     
91     101     108     
103     93     108     
92     103     102     
102     103     107     
89     104     105     
105     104     110     
97     105     111     
99     100     114     
106     99     114     
101     106     112     
107     103     113     
103     108     113     
108     101     112     
110     104     109     
105     110     111     
110     109     116     
111     110     115     
100     111     114     
112     106     119     
108     112     113     
107     113     118     
106     114     119     
114     111     115     
115     110     116     
114     115     120     
115     116     121     
113     112     122     
118     113     122     
107     118     117     
117     118     123     
119     114     120     
112     119     122     
120     115     121     
119     120     124     
120     121     125     
122     119     124     
118     122     127     
123     118     127     
124     120     125     
122     124     127     
125     121     126     
124     125     130     
125     126     131     
127     124     130     
123     127     132     
130     125     131     
127     130     132     
130     131     133     
132     130     133     
132     129     128     
129     132     133     
133     131     129     

