Title = " tecplot file for 2D Cavity problem " 
variables = "x", "y", "z", "velX", "cellCentroidY" 
Zone T = "nmesh0" N = 136 E = 224 DATAPACKING = BLOCK, VARLOCATION = ([4-5]=CELLCENTERED),  ZONETYPE=FETRIANGLE 
1.0    0.96533594013    0.95    1.0    0.95902875974    
1.0    0.9198999378    0.9    0.9568226881    1.0    
0.86890821098    0.85    0.81980127549    0.8    0.95558186406    
1.0    0.95536229089    1.0    0.77006876794    0.75    
0.95550274946    1.0    0.71989229368    0.7    0.95582992292    
1.0    0.66926876975    0.65    0.95630076466    1.0    
0.61821894362    0.6    0.95721112701    1.0    0.95945200039    
0.91575790296    0.88235203294    0.83962702723    0.79064013388    0.74064045872    
0.68983004436    0.63794983483    0.58411329204    0.91144287106    0.91077919899    
0.91080437106    0.9114706769    0.9121834638    0.9133527983    0.91582097533    
0.86586765897    0.86668702612    0.86538024806    0.86699630616    0.86779659152    
0.86883619653    0.81246222176    0.7624554153    0.71177776831    0.66019440423    
0.60734657527    0.55285353766    0.8297452205    0.81633000309    0.8228028954    
0.82336769571    0.82405903565    0.82526906853    0.78540567067    0.73484408151    
0.68351264827    0.63146848902    0.57877398036    0.52573377836    0.47270392277    
0.75975032768    0.78203134701    0.7790086395    0.77938967945    0.77980818143    
0.70760517349    0.65538816944    0.6038501004    0.73359270097    0.44811466774    
0.50020610709    0.55208966062    0.78112107869    0.67757037868    0.62747862208    
0.73567302248    0.7344703029    0.6960322427    0.64568595357    0.68950251933    
0.57739139714    0.527302952    0.47570647776    0.42364937364    0.734916006    
0.73665249203    0.60001209999    0.55543546495    0.50411884888    0.45164534644    
0.39821088213    0.68849932245    0.69240131119    0.68983364822    0.64161186627    
0.5911167146    0.36831459502    0.42805295981    0.48190607441    0.53403453919    
0.64271299661    0.595851633    0.64504433432    0.36265881994    0.41245726179    
0.46300260783    0.51263934275    0.55641526584    0.59647001142    0.60152238429    
0.40576697846    0.45337011442    0.49534090515    0.54224118495    0.5618446652    
0.54470004714    0.51058041495    0.44744144141    0.4990264969    0.55169427507    
0.47769451169    
0.0    0.035160310391    0.0    0.05    0.078366971877    
0.1    0.048580569352    0.0    0.12799717029    0.15    
0.042635634437    0.0    0.042868879836    0.0    0.17826679782    
0.2    0.2287979588    0.25    0.04314350572    0.0    
0.27936708455    0.3    0.043349154299    0.0    0.33007320368    
0.35    0.043233752164    0.0    0.3809899675    0.4    
0.042552465016    0.0    0.43216748305    0.45    0.48279214809    
0.10402920562    0.082430829088    0.085678074287    0.085925316644    0.086566986629    
0.0866850808    0.085978048808    0.083867418262    0.15527496326    0.20692351838    
0.25802183198    0.3092657811    0.36073654189    0.41291898701    0.46683219811    
0.12982587381    0.1848297749    0.23609447727    0.28787324165    0.33939310233    
0.39137615969    0.1277631763    0.12950358558    0.13030639258    0.1299617757    
0.1284987352    0.12610367492    0.16585259531    0.21360161042    0.26687620039    
0.31766553643    0.36907390823    0.42114215162    0.17182513466    0.17392028402    
0.17442665089    0.1732248109    0.17167019475    0.17121780781    0.17248305254    
0.2164769035    0.25168726381    0.29584252349    0.34637890122    0.39783995313    
0.2197242833    0.21836628012    0.21643092704    0.26735984044    0.21817994343    
0.21652383965    0.21553519007    0.44980791583    0.26442256197    0.26198678121    
0.32254887541    0.37402140601    0.30338240521    0.31505163276    0.34901881741    
0.25868364144    0.26012190396    0.26206796087    0.26426585981    0.42601281582    
0.47810321985    0.2982976903    0.3031953365    0.30489372621    0.30825562625    
0.31189818455    0.40145142052    0.50752877441    0.4547391069    0.37416303061    
0.34712025081    0.36419194497    0.35590734171    0.34987065498    0.34619273164    
0.43038869951    0.40589474501    0.48528529386    0.42477109513    0.40619186935    
0.3950189306    0.39025859801    0.38538349804    0.46129907557    0.51739590637    
0.45877128618    0.44283363007    0.42892718502    0.58512439681    0.5425106701    
0.43592965585    0.53507553622    0.49016456785    0.47644982963    0.49379788272    
0.51161072661    
0.0    0.0    0.0    0.0    0.0    
0.0    0.0    0.0    0.0    0.0    
0.0    0.0    0.0    0.0    0.0    
0.0    0.0    0.0    0.0    0.0    
0.0    0.0    0.0    0.0    0.0    
0.0    0.0    0.0    0.0    0.0    
0.0    0.0    0.0    0.0    0.0    
0.0    0.0    0.0    0.0    0.0    
0.0    0.0    0.0    0.0    0.0    
0.0    0.0    0.0    0.0    0.0    
0.0    0.0    0.0    0.0    0.0    
0.0    0.0    0.0    0.0    0.0    
0.0    0.0    0.0    0.0    0.0    
0.0    0.0    0.0    0.0    0.0    
0.0    0.0    0.0    0.0    0.0    
0.0    0.0    0.0    0.0    0.0    
0.0    0.0    0.0    0.0    0.0    
0.0    0.0    0.0    0.0    0.0    
0.0    0.0    0.0    0.0    0.0    
0.0    0.0    0.0    0.0    0.0    
0.0    0.0    0.0    0.0    0.0    
0.0    0.0    0.0    0.0    0.0    
0.0    0.0    0.0    0.0    0.0    
0.0    0.0    0.0    0.0    0.0    
0.0    0.0    0.0    0.0    0.0    
0.0    0.0    0.0    0.0    0.0    
0.0    0.0    0.0    0.0    0.0    
0.0    
0.147458364791    0.140351333013    0.740001672671    0.663118628432    0.472269701834    
1.29774018168    1.35869741824    0.599124084475    1.43889024343    0.852757863262    
2.65515103248    2.10926237825    2.85727673962    0.812292748195    1.93218586282    
3.90252810999    1.08193562433    2.45377315271    1.2699080955    4.23377750747    
2.90502965418    1.69462100294    5.85255326563    3.75304395285    4.93031892503    
1.33483626115    2.91958059263    2.14127444215    7.56790483759    4.68023628747    
5.86814368368    1.55397502449    3.30171557852    2.61949348172    9.40252441965    
5.70606034661    6.62548557974    1.7143065208    3.5667350438    3.13119425397    
11.4254854907    6.82179204516    7.12964043485    1.78653280084    3.62828114934    
13.6142674585    7.88917320585    15.7904273502    2.47826966867    4.35433712428    
3.23206615288    4.23438144783    5.46263732099    5.60731959074    6.07251610646    
6.85905444076    7.90397044785    7.94012006381    9.68130572382    8.77850485278    
11.2094988011    9.29185930781    12.3623069297    13.0393844514    6.32839697544    
6.03542683152    8.39201304667    8.77851692293    10.6190367183    11.7300749845    
13.0783670947    14.7741337121    15.8360520162    18.1775925544    18.8808048427    
21.9923808917    8.56878226167    8.10281744582    11.7688303562    10.3748091981    
15.1671727975    14.718579866    18.8703599312    18.7412574563    23.057525162    
23.3027781246    28.486424602    10.2262964725    10.1223866484    12.1468534706    
12.8909983828    13.7288512202    15.3825568862    14.8748494469    17.3997911712    
15.5027633068    18.8013480416    19.6186282475    13.9708730702    12.9173266964    
18.4389027534    15.350345988    23.1068929332    21.5048137667    28.4371698538    
26.8552598335    33.0578836579    15.8373614525    18.3619284638    18.965716458    
20.2922179525    22.1703396481    21.5795844702    24.4386220291    22.2545829174    
25.9317758649    18.7736747245    26.8446326568    22.614117193    21.4051718165    
25.9547148903    26.2818670447    32.0354481347    28.92559894    39.1800854301    
35.7822970242    40.2287836349    47.3812104953    43.8612400516    25.576169786    
26.5927613781    27.5955894949    30.0164028854    28.8903134842    32.2952529952    
30.8898798871    33.7080777352    27.3016778637    29.6269990327    29.8259413357    
34.8946152538    34.6155553818    33.633209362    53.1489033264    33.693490181    
35.1783728512    35.5439124012    39.452138513    41.8131546087    36.5451444908    
50.917460335    45.3965500824    42.8036611136    40.3541270636    42.6234688228    
44.9323754551    52.2771679979    36.7718482694    40.3308022189    37.5243982727    
42.0831840527    37.3946958634    42.9652921537    42.9625987363    55.4953919069    
61.3265006027    51.0274436509    66.9663595818    43.706184907    49.1344376689    
45.4838955438    49.547468628    46.0738765396    51.2200168512    45.4865558736    
52.0105230366    51.7238945695    63.4988532764    55.6208007094    76.2491877725    
81.5732298313    67.7959075933    63.2943843433    53.1403542601    61.1641138043    
53.7390840315    55.4685718564    54.5863625579    61.8483406202    55.0175177628    
61.9743985981    61.3021331086    59.5915599309    76.8998437981    66.2895830055    
63.232960345    75.2483438511    80.800770407    65.9415430062    65.7648051647    
75.1977480715    65.321591131    73.7340353704    63.8171037453    71.8493186307    
72.0979863375    71.4350452998    77.758958417    78.3936863511    76.1878150234    
87.3490296628    75.4147310455    84.4569832968    87.0978666876    83.7603121738    
119.290944756    107.729938407    90.0499691006    97.3582225476    94.3483689782    
103.949596752    89.6015058003    100.903312959    102.552290923    
0.01119822617    0.0271632574007    0.0283179167082    0.0555055841631    0.0758081724254    
0.0540848730322    0.102558476203    0.0166828366915    0.0302770030014    0.125748694514    
0.103230850802    0.152433882484    0.057539209692    0.0141837524338    0.0284622921696    
0.0571081492185    0.0142733331211    0.028660564302    0.175833494453    0.15359019813    
0.202652027004    0.225972992934    0.204379127512    0.253036012889    0.0573107861355    
0.0143855846566    0.0288322803906    0.27611697017    0.255093504483    0.303504351644    
0.0576870392791    0.0144724967008    0.0288842053086    0.326291861348    0.305888982112    
0.354112307636    0.057736135932    0.0144292854677    0.0286674644651    0.37651564996    
0.35686725146    0.40488778343    0.0571934622128    0.0141556439797    0.426789856307    
0.408214311666    0.455501730939    0.459957327765    0.077067459946    0.129560068005    
0.0771774599422    0.0698859579059    0.10676781471    0.0714346072495    0.100155168974    
0.0718878175368    0.0997542865467    0.0722460331027    0.100663770963    0.0720871837795    
0.101167004865    0.0710744689225    0.100782524885    0.0992207842347    0.180441410251    
0.129393052315    0.23154549506    0.181980883571    0.282523994154    0.233399057192    
0.333725200405    0.284747777587    0.385317027291    0.336143659894    0.437883001189    
0.388028986789    0.156775083469    0.11467907625    0.209665022502    0.159117171099    
0.260878307066    0.211221917349    0.312490453601    0.263298264435    0.364166159684    
0.314691499841    0.36637221788    0.114458304271    0.140586579411    0.115502981365    
0.143009518272    0.115738390793    0.144585820747    0.114994832732    0.144872534612    
0.113101256752    0.143756911529    0.141860238723    0.189410905257    0.155052973711    
0.238742720291    0.184400750328    0.291128973691    0.243198505054    0.342330669093    
0.2932075612    0.344170418626    0.158467435276    0.159598171173    0.187380503173    
0.159294760923    0.189449409455    0.157929864217    0.188633610459    0.156379307208    
0.186974074234    0.201074596146    0.185991144353    0.203484668638    0.22637679062    
0.272115388583    0.245722163174    0.320214595763    0.271715199596    0.371320694551    
0.321496416041    0.395876398656    0.423060295828    0.37262225256    0.204217966399    
0.234855910552    0.202710826351    0.234201108429    0.201254436601    0.232260638993    
0.250695402797    0.295011299416    0.186638742173    0.201103589996    0.202415689256    
0.232225066039    0.230658875385    0.230044412138    0.424470809283    0.248128803959    
0.27772753598    0.245670724295    0.281313986969    0.347897405219    0.296899630746    
0.399439511152    0.348385272321    0.325693251764    0.294621099976    0.291858716399    
0.322583305457    0.375003722936    0.24474319551    0.272574991794    0.246249586079    
0.274046158876    0.248181514136    0.275628441386    0.278197427896    0.400414598539    
0.451367992    0.345920502318    0.452862729742    0.286482411565    0.321162598602    
0.289440192896    0.317106497544    0.2918230972    0.317931099253    0.294863736437    
0.320847808839    0.325316851783    0.427481311715    0.374886966693    0.480192546782    
0.482364566967    0.428767904553    0.401997085533    0.344955586107    0.375600984302    
0.332609917062    0.338203392855    0.344416489459    0.375217615719    0.333804720896    
0.36665117396    0.361896717298    0.35884575264    0.45691204821    0.403228248332    
0.378575398844    0.432767104439    0.458870001357    0.38563504945    0.397626605315    
0.430038026829    0.378369859023    0.414799475717    0.373676476029    0.40431629425    
0.410276187376    0.404924097108    0.434254522183    0.435530064143    0.42195686796    
0.464019055421    0.418604098363    0.450339979347    0.463491616553    0.447667191243    
0.554215505735    0.523488545069    0.469721250309    0.491613074717    0.490804987601    
0.517243695052    0.468261060245    0.50207833053    0.507374583556    
1     2     3     
2     1     4     
3     2     7     
2     4     5     
5     4     6     
2     5     7     
5     6     9     
3     7     8     
8     7     11     
9     6     10     
5     9     36     
9     10     15     
11     7     37     
8     11     12     
12     11     13     
13     11     38     
12     13     14     
14     13     19     
15     10     16     
9     15     44     
15     16     17     
17     16     18     
15     17     45     
17     18     21     
19     13     39     
14     19     20     
20     19     23     
21     18     22     
17     21     46     
21     22     25     
23     19     40     
20     23     24     
24     23     27     
25     22     26     
21     25     47     
25     26     29     
27     23     41     
24     27     28     
28     27     31     
29     26     30     
25     29     48     
29     30     33     
31     27     42     
28     31     32     
33     30     34     
29     33     49     
33     34     35     
33     35     50     
7     5     36     
36     9     44     
7     36     37     
11     37     38     
37     36     51     
13     38     39     
38     37     51     
19     39     40     
39     38     57     
23     40     41     
40     39     58     
27     41     42     
41     40     59     
31     42     43     
42     41     60     
43     42     61     
44     15     45     
36     44     51     
45     17     46     
44     45     52     
46     21     47     
45     46     53     
47     25     48     
46     47     54     
48     29     49     
47     48     55     
49     33     50     
48     49     56     
51     44     52     
38     51     57     
52     45     53     
51     52     63     
53     46     54     
52     53     64     
54     47     55     
53     54     65     
55     48     56     
54     55     66     
55     56     67     
39     57     58     
57     51     63     
40     58     59     
58     57     69     
41     59     60     
59     58     70     
42     60     61     
60     59     71     
43     61     62     
61     60     72     
62     61     73     
63     52     64     
57     63     69     
64     53     65     
63     64     69     
65     54     66     
64     65     77     
66     55     67     
65     66     78     
66     67     79     
58     69     70     
59     70     71     
70     69     76     
60     71     72     
71     70     81     
61     72     73     
72     71     82     
62     73     74     
73     72     83     
69     64     76     
74     73     87     
70     76     81     
76     64     77     
77     65     78     
76     77     84     
78     66     79     
77     78     84     
79     67     80     
78     79     91     
68     80     67     
80     68     88     
79     80     92     
71     81     82     
81     76     84     
72     82     83     
82     81     89     
73     83     87     
83     82     90     
81     84     89     
84     78     91     
74     86     75     
86     74     87     
75     86     85     
85     86     98     
86     87     97     
87     83     96     
80     88     100     
82     89     90     
89     84     93     
83     90     96     
90     89     94     
91     79     92     
84     91     93     
92     80     100     
91     92     95     
93     91     95     
89     93     94     
90     94     102     
94     93     95     
95     92     107     
87     96     97     
96     90     102     
86     97     98     
97     96     103     
85     98     99     
98     97     104     
99     98     105     
92     100     107     
100     88     101     
94     95     110     
100     101     109     
96     102     103     
102     94     111     
97     103     104     
103     102     111     
98     104     105     
104     103     115     
99     105     106     
105     104     114     
106     105     113     
107     100     109     
95     107     110     
109     101     108     
109     108     118     
107     109     116     
110     107     116     
94     110     111     
111     110     117     
103     111     115     
113     105     114     
106     113     112     
112     113     120     
114     104     115     
113     114     121     
114     115     122     
115     111     123     
116     109     118     
110     116     117     
111     117     123     
117     116     124     
116     118     124     
120     113     121     
112     120     119     
119     120     126     
121     114     122     
120     121     127     
122     115     123     
121     122     128     
123     117     131     
122     123     131     
117     124     131     
126     120     127     
127     121     128     
126     127     133     
128     122     131     
127     128     134     
131     124     135     
128     131     134     
132     130     129     
130     132     135     
133     127     134     
133     134     136     
125     135     124     
135     125     130     
131     135     134     
135     132     134     
136     134     132     

