Title = " tecplot file for 2D Cavity problem " 
variables = "x", "y", "z", "velX", "cellCentroidY" 
Zone T = "nmesh0" N = 136 E = 223 DATAPACKING = BLOCK, VARLOCATION = ([4-5]=CELLCENTERED),  ZONETYPE=FETRIANGLE 
1.0    0.9649024825    1.0    0.95    0.95155322615    
1.0    0.92177911433    0.9    0.95749200678    1.0    
0.87226824393    0.85    0.9572484407    1.0    0.82219618312    
0.8    0.95696372984    1.0    0.77199475402    0.75    
0.72195093401    0.7    0.95675970876    1.0    0.95688164945    
1.0    0.67197150816    0.65    0.95755698627    1.0    
0.62193949298    0.6    0.95959377415    1.0    0.57236329358    
0.55    1.0    0.95721112701    1.0    0.95945200039    
1.0    0.96732120107    0.52831468118    0.5    0.91582097533    
0.89627773688    0.91782156923    0.91455680685    0.91426123614    0.91359975372    
0.91349616662    0.91421551885    0.91629100111    0.92245638347    0.84526518899    
0.79400903185    0.74361496428    0.69356203423    0.64373910321    0.59286509504    
0.53807151633    0.87057486204    0.81583309813    0.76505094353    0.71431985769    
0.6649602505    0.61677039554    0.87066230274    0.56805308825    0.87249847607    
0.87066024693    0.86985479406    0.87026057149    0.87173328327    0.8740188815    
0.83452260875    0.52340883677    0.78675489866    0.73380082327    0.68391918853    
0.63574362176    0.59322958088    0.82830603574    0.87359766195    0.82608162102    
0.82569617528    0.82706195114    0.8285477429    0.47747547855    0.46126715131    
0.54938968204    0.82718982092    0.8287191441    0.78320791419    0.74788912304    
0.70295502959    0.65116510576    0.60011687015    0.77998716233    0.78188085254    
0.78401043104    0.50340439664    0.73121963088    0.73540856209    0.73883927731    
0.78450765774    0.67312094014    0.61434151013    0.69489576235    0.78300081971    
0.68591149471    0.50149406194    0.55884472011    0.64785825573    0.74192742165    
0.70398345607    0.73926987841    0.52169417532    0.56796530247    0.59668872216    
0.62751779272    0.6592260919    0.49319345201    0.54466024892    0.69702479356    
0.57249702702    0.60240505316    0.4648010572    0.51753479009    0.64867709448    
0.54224118495    0.48724078267    0.5618446652    0.51058041495    0.55169427507    
0.4990264969    
1.0    0.96538400526    0.95    1.0    0.92000601205    
0.9    0.95913369295    1.0    0.86903291872    0.85    
0.95701048188    1.0    0.81995137328    0.8    0.95590742877    
1.0    0.77024877003    0.75    0.95593396956    1.0    
0.9564812879    1.0    0.72009911714    0.7    0.66949183304    
0.65    0.95732543115    1.0    0.61844504415    0.6    
0.95812133767    1.0    0.56783265302    0.55    0.9593733532    
1.0    0.4    0.43216748305    0.45    0.48279214809    
0.5    0.52524828361    0.96511729799    1.0    0.46683219811    
0.91600608837    0.88258600317    0.83991377622    0.79098435563    0.74104570727    
0.69028227669    0.63842124284    0.58457816469    0.52565479765    0.91187468859    
0.91153407609    0.91214185366    0.91379185358    0.91566984216    0.91696323584    
0.91991572278    0.86629682455    0.86742745263    0.86664992287    0.86930622211    
0.87200935229    0.87531587826    0.44434380015    0.8737749857    0.81296847359    
0.7630594134    0.71247305247    0.6609412431    0.60810077634    0.5536017523    
0.83043935308    0.8692125815    0.81742414419    0.8246807162    0.82685905417    
0.83137907541    0.83855543059    0.78622661388    0.49881568546    0.7357980191    
0.68457114667    0.63254850053    0.57985069778    0.86717917706    0.82300523501    
0.82039372635    0.47386267257    0.52684794462    0.76097110423    0.78364947962    
0.78146635348    0.78429570521    0.79467169092    0.70901105062    0.65682439085    
0.60527804061    0.83071296987    0.73541287677    0.67929764752    0.62923533916    
0.55356110881    0.73824985597    0.73897982284    0.69786106312    0.50182839444    
0.64719166416    0.7812628525    0.76453172488    0.68999466862    0.57923162396    
0.60227481054    0.52939615087    0.72695267365    0.71857375242    0.68200187547    
0.63665376955    0.59431737623    0.68240404586    0.67830493031    0.55808573722    
0.63154185281    0.57897227315    0.63796501606    0.63349850238    0.5407051787    
0.58512439681    0.58765603511    0.5425106701    0.53507553622    0.49379788272    
0.47644982963    
0.0    0.0    0.0    0.0    0.0    
0.0    0.0    0.0    0.0    0.0    
0.0    0.0    0.0    0.0    0.0    
0.0    0.0    0.0    0.0    0.0    
0.0    0.0    0.0    0.0    0.0    
0.0    0.0    0.0    0.0    0.0    
0.0    0.0    0.0    0.0    0.0    
0.0    0.0    0.0    0.0    0.0    
0.0    0.0    0.0    0.0    0.0    
0.0    0.0    0.0    0.0    0.0    
0.0    0.0    0.0    0.0    0.0    
0.0    0.0    0.0    0.0    0.0    
0.0    0.0    0.0    0.0    0.0    
0.0    0.0    0.0    0.0    0.0    
0.0    0.0    0.0    0.0    0.0    
0.0    0.0    0.0    0.0    0.0    
0.0    0.0    0.0    0.0    0.0    
0.0    0.0    0.0    0.0    0.0    
0.0    0.0    0.0    0.0    0.0    
0.0    0.0    0.0    0.0    0.0    
0.0    0.0    0.0    0.0    0.0    
0.0    0.0    0.0    0.0    0.0    
0.0    0.0    0.0    0.0    0.0    
0.0    0.0    0.0    0.0    0.0    
0.0    0.0    0.0    0.0    0.0    
0.0    0.0    0.0    0.0    0.0    
0.0    0.0    0.0    0.0    0.0    
0.0    
100.888329074    301.475890014    114.191591427    291.510964353    201.629141845    
55.3031147295    67.6400820961    354.611901968    331.345545445    119.452091149    
27.6888067761    42.8364101427    370.142705764    270.290728928    350.854860085    
83.5801044487    19.0478081894    31.8932217728    377.413647498    303.133255301    
361.417127225    62.8630453611    14.4449746768    24.9047875263    381.891113481    
323.217805188    367.959867944    384.853592422    336.000584435    372.199484788    
49.3439527073    11.4099024809    19.9163427694    39.4575124055    9.1322155191    
16.0593019954    386.907875075    344.7611618    375.025191704    31.6960077041    
7.26309440004    12.7929512938    388.320604199    350.803835366    377.113165958    
25.2268604082    5.51041439191    9.44082734069    389.569742634    354.874932172    
379.915270291    3.62828118394    7.88917328028    3.92442265942    15.7904275125    
8.16019808197    19.3087033038    3.38245318071    391.659445975    359.146772513    
17.1977138007    210.158546724    21.8778716633    266.806889115    171.734369179    
113.16014449    186.333851066    86.7162901085    152.931308363    67.5576340181    
116.461033085    53.981596161    92.1067656598    43.6065256781    74.015731862    
35.1699504088    59.7851579928    27.5025786856    48.0817001518    37.6882945579    
296.016306165    222.471840486    314.821554129    260.040586249    327.074268789    
283.065111172    335.461038282    299.558944557    340.962971161    310.959013987    
345.042849152    319.012968154    323.233407989    30.8085566049    226.668760402    
148.249666083    258.813931515    200.85244182    279.061134664    228.247777999    
293.821352544    253.481840079    303.947444793    269.780000805    309.750771374    
281.927162368    312.845510274    290.122054826    114.458203077    170.52072974    
92.0190333349    137.118767199    74.7426008973    111.545362877    60.8813772423    
90.9805656856    49.3879932519    74.1299450594    39.3981515049    60.3684317317    
159.625482223    206.229871362    285.921406969    229.98238538    181.415852873    
251.718088386    210.066820118    266.158594263    229.582673653    277.199477263    
244.49122288    278.715939628    257.906194388    132.205297835    49.6040684964    
33.2456414441    41.2626576733    108.450711547    150.167361868    89.0788912546    
124.170291623    73.1318038648    101.97641182    60.0394896088    83.9706391187    
174.728408307    258.275342099    278.409732452    49.7510046441    69.6224183834    
143.478833528    188.148517036    213.218615773    177.076895682    228.23860177    
192.040062322    242.740060977    208.676502536    222.474943558    118.913306971    
158.838593986    98.1941557395    130.651281669    81.4465970073    108.181101722    
58.1046385979    243.214253385    289.099753422    256.722390902    278.692342344    
257.524672515    149.76835564    190.4733    123.427918009    158.040287841    
103.165365491    132.60826172    67.901277961    90.1708385532    206.129521066    
175.145349322    221.805755967    187.432002959    146.440572187    173.810704316    
75.9612679157    124.113764691    156.190128374    241.673500035    222.037149561    
208.419693886    181.784788033    86.6640313242    109.864194888    151.200048707    
104.954510247    125.845127377    94.2681875714    207.657744937    189.922371684    
191.239229301    161.992833666    181.381910065    156.576272985    135.757555482    
112.740329534    130.796025119    185.934461403    169.301089418    165.996143489    
139.709817711    160.00290283    116.738418852    135.292120941    162.90290589    
147.652679451    145.425053196    123.553815363    139.830895977    125.813743962    
119.29094672    107.729940829    100.903316158    
0.97293575685    0.989009545398    0.943651585818    0.974706062208    0.947685042806    
0.923644279669    0.896345756178    0.986565886922    0.971952255656    0.891435211434    
0.873520772673    0.845860961223    0.98569063052    0.944130550938    0.97098381177    
0.843355261487    0.823745038228    0.796305729023    0.985230146199    0.941498507355    
0.970670724839    0.794092653159    0.77381361146    0.74636379278    0.985240413417    
0.941041298689    0.970852370139    0.985468889654    0.941446745449    0.971263740463    
0.744157021882    0.723771662669    0.696096168108    0.693664693482    0.673621043172    
0.645496550564    0.985820255085    0.942534488537    0.971739667969    0.642554949463    
0.623375049926    0.594942624852    0.986149712756    0.943798294165    0.972371733475    
0.590884427244    0.573286461272    0.547950270045    0.986666688895    0.944892178959    
0.974705959102    0.426789856307    0.455501730939    0.476871019464    0.459957327765    
0.502458155871    0.540064497569    0.525048713053    0.98897082674    0.947597275459    
0.510746451578    0.931196566645    0.492892169161    0.928155837793    0.90711174099    
0.863144564612    0.887642505578    0.816566045568    0.862926519409    0.767024497595    
0.814854833919    0.716754166983    0.765322656756    0.665652743739    0.714876234022    
0.613273480248    0.663464507181    0.558258409876    0.610540979871    0.554317904788    
0.926425835135    0.89779806926    0.926584967985    0.896947453662    0.927498851472    
0.896630040806    0.92889624336    0.898365906033    0.930085762224    0.90050945381    
0.931650473347    0.902890642579    0.903804376403    0.497319286326    0.881678046042    
0.8398401361    0.881915881882    0.85541391154    0.882734362913    0.849992929311    
0.885084136106    0.853557441828    0.887687819647    0.855931566224    0.888696659791    
0.859493257256    0.888605431801    0.863015659707    0.788617192143    0.837541909591    
0.7385224582    0.787699253426    0.687613934728    0.737328872897    0.635563775473    
0.68614587304    0.581893659214    0.633935521086    0.526037443243    0.580445795644    
0.809112928396    0.838084657973    0.853268698764    0.836197991644    0.811304243919    
0.840344959873    0.808991002886    0.843532665252    0.810868983772    0.84862445767    
0.813827805989    0.844080193814    0.820995848042    0.761361667078    0.526393147593    
0.47024302865    0.472343764203    0.710725371046    0.761162138823    0.659242977502    
0.709911254177    0.606769583223    0.658031022976    0.553424297496    0.605868128186    
0.788260474084    0.817244227912    0.840116715242    0.499861386064    0.553388209016    
0.734957997235    0.788364781329    0.796884063169    0.758732751864    0.797522770594    
0.766041479586    0.803316836104    0.76800707345    0.772049335555    0.683465086808    
0.735329969782    0.631576279288    0.681869988285    0.579562431061    0.630447208669    
0.500828841618    0.793676574237    0.855874620864    0.809793082495    0.840571829368    
0.810450049897    0.70806104649    0.751261161284    0.655166391964    0.705057170916    
0.604718155272    0.652040013938    0.527373864313    0.579338239311    0.75348021576    
0.724568964351    0.765247519911    0.722589132734    0.673608622641    0.708835889059    
0.528226852282    0.627144679478    0.677611223741    0.788807840082    0.758098006151    
0.741401744472    0.704452769245    0.553932543558    0.60357873774    0.657750528803    
0.579441709612    0.615344344105    0.555456287497    0.737039603439    0.713373284337    
0.707731562356    0.669158510707    0.692462112731    0.650070592779    0.626454815015    
0.584495959531    0.603003407431    0.696049205701    0.664565942914    0.663656168893    
0.61507775187    0.647624881498    0.571345690562    0.598264987959    0.651349664795    
0.619501480903    0.616731221211    0.569590532866    0.602054725769    0.568948900765    
0.554215505735    0.523488545069    0.50207833053    
1     2     3     
1     2     4     
2     3     5     
4     2     7     
2     5     7     
5     3     6     
5     6     9     
4     7     8     
8     7     11     
5     9     47     
9     6     10     
9     10     13     
8     11     12     
11     7     46     
12     11     15     
9     13     48     
13     10     14     
13     14     17     
12     15     16     
15     11     55     
16     15     19     
13     17     49     
17     14     18     
17     18     23     
16     19     20     
19     15     56     
20     19     21     
20     21     22     
21     19     57     
22     21     27     
17     23     50     
23     18     24     
23     24     25     
23     25     51     
25     24     26     
25     26     29     
22     27     28     
27     21     58     
28     27     31     
25     29     52     
29     26     30     
29     30     33     
28     31     32     
31     27     59     
32     31     35     
29     33     53     
33     30     34     
33     34     42     
32     35     36     
35     31     60     
36     35     43     
39     38     37     
39     38     40     
39     40     41     
40     38     45     
41     40     42     
33     42     54     
42     34     41     
36     43     44     
43     35     61     
42     40     54     
7     5     46     
40     45     54     
11     46     55     
46     5     47     
47     9     48     
46     47     62     
48     13     49     
47     48     62     
49     17     50     
48     49     70     
50     23     51     
49     50     71     
51     25     52     
50     51     72     
52     29     53     
51     52     73     
53     33     54     
52     53     74     
53     54     75     
15     55     56     
55     46     62     
19     56     57     
56     55     63     
21     57     58     
57     56     64     
27     58     59     
58     57     65     
31     59     60     
59     58     66     
35     60     61     
60     59     67     
61     60     69     
54     45     84     
55     62     63     
62     48     70     
56     63     64     
63     62     76     
57     64     65     
64     63     78     
58     65     66     
65     64     79     
59     66     67     
66     65     80     
60     67     69     
67     66     81     
61     69     77     
69     67     82     
70     49     71     
62     70     76     
71     50     72     
70     71     83     
72     51     73     
71     72     85     
73     52     74     
72     73     86     
74     53     75     
73     74     87     
75     54     84     
74     75     88     
76     70     83     
63     76     78     
77     69     91     
64     78     79     
78     76     83     
65     79     80     
79     78     95     
66     80     81     
80     79     96     
67     81     82     
81     80     97     
69     82     91     
82     81     98     
83     71     85     
75     84     93     
84     45     68     
84     68     92     
85     72     86     
83     85     94     
86     73     87     
85     86     99     
87     74     88     
86     87     100     
88     75     93     
87     88     101     
78     83     94     
91     82     98     
77     91     102     
84     92     93     
88     93     106     
94     85     99     
78     94     95     
79     95     96     
95     94     103     
80     96     97     
96     95     103     
81     97     98     
97     96     107     
98     97     108     
99     86     100     
94     99     103     
100     87     101     
99     100     104     
101     88     106     
100     101     105     
93     92     110     
91     98     113     
77     102     89     
102     91     112     
89     102     90     
90     102     112     
103     99     104     
96     103     107     
104     100     105     
103     104     109     
105     101     115     
104     105     111     
106     93     110     
101     106     115     
97     107     108     
107     103     109     
98     108     113     
108     107     114     
109     104     111     
107     109     114     
106     110     117     
111     105     116     
109     111     114     
112     91     113     
112     113     118     
113     108     119     
108     114     120     
115     106     117     
105     115     116     
114     111     121     
116     115     125     
111     116     122     
115     117     125     
118     113     119     
119     108     120     
118     119     124     
120     114     121     
119     120     124     
120     121     126     
121     111     122     
122     116     125     
121     122     127     
118     124     123     
123     124     129     
124     120     126     
126     121     127     
124     126     129     
127     122     130     
126     127     131     
123     129     128     
128     129     132     
129     126     131     
131     127     133     
129     131     132     
132     131     134     
131     133     134     
134     133     135     
134     135     136     

