Title = " tecplot file for 2D Cavity problem " 
variables = "x", "y", "z", "velX", "cellCentroidY" 
Zone T = "nmesh0" N = 561 E = 512 DATAPACKING = BLOCK, VARLOCATION = ([4-5]=CELLCENTERED), ZONETYPE=FEQUADRILATERAL
0.5    0.5    0.5    0.5    0.5    
0.5    0.5    0.5    0.5    0.5    
0.5    0.5    0.5    0.5    0.5    
0.5    0.5    0.5    0.5    0.5    
0.5    0.5    0.5    0.5    0.5    
0.5    0.5    0.5    0.5    0.5    
0.5    0.5    0.5    0.46875    0.46875    
0.46875    0.46875    0.46875    0.46875    0.46875    
0.46875    0.46875    0.46875    0.46875    0.46875    
0.46875    0.46875    0.46875    0.46875    0.46875    
0.46875    0.46875    0.46875    0.46875    0.46875    
0.46875    0.46875    0.46875    0.46875    0.46875    
0.46875    0.46875    0.46875    0.46875    0.46875    
0.46875    0.4375    0.4375    0.4375    0.4375    
0.4375    0.4375    0.4375    0.4375    0.4375    
0.4375    0.4375    0.4375    0.4375    0.4375    
0.4375    0.4375    0.4375    0.4375    0.4375    
0.4375    0.4375    0.4375    0.4375    0.4375    
0.4375    0.4375    0.4375    0.4375    0.4375    
0.4375    0.4375    0.4375    0.4375    0.40625    
0.40625    0.40625    0.40625    0.40625    0.40625    
0.40625    0.40625    0.40625    0.40625    0.40625    
0.40625    0.40625    0.40625    0.40625    0.40625    
0.40625    0.40625    0.40625    0.40625    0.40625    
0.40625    0.40625    0.40625    0.40625    0.40625    
0.40625    0.40625    0.40625    0.40625    0.40625    
0.40625    0.40625    0.375    0.375    0.375    
0.375    0.375    0.375    0.375    0.375    
0.375    0.375    0.375    0.375    0.375    
0.375    0.375    0.375    0.375    0.375    
0.375    0.375    0.375    0.375    0.375    
0.375    0.375    0.375    0.375    0.375    
0.375    0.375    0.375    0.375    0.375    
0.34375    0.34375    0.34375    0.34375    0.34375    
0.34375    0.34375    0.34375    0.34375    0.34375    
0.34375    0.34375    0.34375    0.34375    0.34375    
0.34375    0.34375    0.34375    0.34375    0.34375    
0.34375    0.34375    0.34375    0.34375    0.34375    
0.34375    0.34375    0.34375    0.34375    0.34375    
0.34375    0.34375    0.34375    0.3125    0.3125    
0.3125    0.3125    0.3125    0.3125    0.3125    
0.3125    0.3125    0.3125    0.3125    0.3125    
0.3125    0.3125    0.3125    0.3125    0.3125    
0.3125    0.3125    0.3125    0.3125    0.3125    
0.3125    0.3125    0.3125    0.3125    0.3125    
0.3125    0.3125    0.3125    0.3125    0.3125    
0.3125    0.28125    0.28125    0.28125    0.28125    
0.28125    0.28125    0.28125    0.28125    0.28125    
0.28125    0.28125    0.28125    0.28125    0.28125    
0.28125    0.28125    0.28125    0.28125    0.28125    
0.28125    0.28125    0.28125    0.28125    0.28125    
0.28125    0.28125    0.28125    0.28125    0.28125    
0.28125    0.28125    0.28125    0.28125    0.25    
0.25    0.25    0.25    0.25    0.25    
0.25    0.25    0.25    0.25    0.25    
0.25    0.25    0.25    0.25    0.25    
0.25    0.25    0.25    0.25    0.25    
0.25    0.25    0.25    0.25    0.25    
0.25    0.25    0.25    0.25    0.25    
0.25    0.25    0.21875    0.21875    0.21875    
0.21875    0.21875    0.21875    0.21875    0.21875    
0.21875    0.21875    0.21875    0.21875    0.21875    
0.21875    0.21875    0.21875    0.21875    0.21875    
0.21875    0.21875    0.21875    0.21875    0.21875    
0.21875    0.21875    0.21875    0.21875    0.21875    
0.21875    0.21875    0.21875    0.21875    0.21875    
0.1875    0.1875    0.1875    0.1875    0.1875    
0.1875    0.1875    0.1875    0.1875    0.1875    
0.1875    0.1875    0.1875    0.1875    0.1875    
0.1875    0.1875    0.1875    0.1875    0.1875    
0.1875    0.1875    0.1875    0.1875    0.1875    
0.1875    0.1875    0.1875    0.1875    0.1875    
0.1875    0.1875    0.1875    0.15625    0.15625    
0.15625    0.15625    0.15625    0.15625    0.15625    
0.15625    0.15625    0.15625    0.15625    0.15625    
0.15625    0.15625    0.15625    0.15625    0.15625    
0.15625    0.15625    0.15625    0.15625    0.15625    
0.15625    0.15625    0.15625    0.15625    0.15625    
0.15625    0.15625    0.15625    0.15625    0.15625    
0.15625    0.125    0.125    0.125    0.125    
0.125    0.125    0.125    0.125    0.125    
0.125    0.125    0.125    0.125    0.125    
0.125    0.125    0.125    0.125    0.125    
0.125    0.125    0.125    0.125    0.125    
0.125    0.125    0.125    0.125    0.125    
0.125    0.125    0.125    0.125    0.09375    
0.09375    0.09375    0.09375    0.09375    0.09375    
0.09375    0.09375    0.09375    0.09375    0.09375    
0.09375    0.09375    0.09375    0.09375    0.09375    
0.09375    0.09375    0.09375    0.09375    0.09375    
0.09375    0.09375    0.09375    0.09375    0.09375    
0.09375    0.09375    0.09375    0.09375    0.09375    
0.09375    0.09375    0.0625    0.0625    0.0625    
0.0625    0.0625    0.0625    0.0625    0.0625    
0.0625    0.0625    0.0625    0.0625    0.0625    
0.0625    0.0625    0.0625    0.0625    0.0625    
0.0625    0.0625    0.0625    0.0625    0.0625    
0.0625    0.0625    0.0625    0.0625    0.0625    
0.0625    0.0625    0.0625    0.0625    0.0625    
0.03125    0.03125    0.03125    0.03125    0.03125    
0.03125    0.03125    0.03125    0.03125    0.03125    
0.03125    0.03125    0.03125    0.03125    0.03125    
0.03125    0.03125    0.03125    0.03125    0.03125    
0.03125    0.03125    0.03125    0.03125    0.03125    
0.03125    0.03125    0.03125    0.03125    0.03125    
0.03125    0.03125    0.03125    0.0    0.0    
0.0    0.0    0.0    0.0    0.0    
0.0    0.0    0.0    0.0    0.0    
0.0    0.0    0.0    0.0    0.0    
0.0    0.0    0.0    0.0    0.0    
0.0    0.0    0.0    0.0    0.0    
0.0    0.0    0.0    0.0    0.0    
0.0    
1.0    0.96875    0.9375    0.90625    0.875    
0.84375    0.8125    0.78125    0.75    0.71875    
0.6875    0.65625    0.625    0.59375    0.5625    
0.53125    0.5    0.46875    0.4375    0.40625    
0.375    0.34375    0.3125    0.28125    0.25    
0.21875    0.1875    0.15625    0.125    0.09375    
0.0625    0.03125    0.0    0.96875    1.0    
0.9375    0.90625    0.875    0.84375    0.8125    
0.78125    0.75    0.71875    0.6875    0.65625    
0.625    0.59375    0.5625    0.53125    0.5    
0.46875    0.4375    0.40625    0.375    0.34375    
0.3125    0.28125    0.25    0.21875    0.1875    
0.15625    0.125    0.09375    0.0625    0.03125    
0.0    0.96875    1.0    0.9375    0.90625    
0.875    0.84375    0.8125    0.78125    0.75    
0.71875    0.6875    0.65625    0.625    0.59375    
0.5625    0.53125    0.5    0.46875    0.4375    
0.40625    0.375    0.34375    0.3125    0.28125    
0.25    0.21875    0.1875    0.15625    0.125    
0.09375    0.0625    0.03125    0.0    0.96875    
1.0    0.9375    0.90625    0.875    0.84375    
0.8125    0.78125    0.75    0.71875    0.6875    
0.65625    0.625    0.59375    0.5625    0.53125    
0.5    0.46875    0.4375    0.40625    0.375    
0.34375    0.3125    0.28125    0.25    0.21875    
0.1875    0.15625    0.125    0.09375    0.0625    
0.03125    0.0    0.96875    1.0    0.9375    
0.90625    0.875    0.84375    0.8125    0.78125    
0.75    0.71875    0.6875    0.65625    0.625    
0.59375    0.5625    0.53125    0.5    0.46875    
0.4375    0.40625    0.375    0.34375    0.3125    
0.28125    0.25    0.21875    0.1875    0.15625    
0.125    0.09375    0.0625    0.03125    0.0    
0.96875    1.0    0.9375    0.90625    0.875    
0.84375    0.8125    0.78125    0.75    0.71875    
0.6875    0.65625    0.625    0.59375    0.5625    
0.53125    0.5    0.46875    0.4375    0.40625    
0.375    0.34375    0.3125    0.28125    0.25    
0.21875    0.1875    0.15625    0.125    0.09375    
0.0625    0.03125    0.0    0.96875    1.0    
0.9375    0.90625    0.875    0.84375    0.8125    
0.78125    0.75    0.71875    0.6875    0.65625    
0.625    0.59375    0.5625    0.53125    0.5    
0.46875    0.4375    0.40625    0.375    0.34375    
0.3125    0.28125    0.25    0.21875    0.1875    
0.15625    0.125    0.09375    0.0625    0.03125    
0.0    0.96875    1.0    0.9375    0.90625    
0.875    0.84375    0.8125    0.78125    0.75    
0.71875    0.6875    0.65625    0.625    0.59375    
0.5625    0.53125    0.5    0.46875    0.4375    
0.40625    0.375    0.34375    0.3125    0.28125    
0.25    0.21875    0.1875    0.15625    0.125    
0.09375    0.0625    0.03125    0.0    0.96875    
1.0    0.9375    0.90625    0.875    0.84375    
0.8125    0.78125    0.75    0.71875    0.6875    
0.65625    0.625    0.59375    0.5625    0.53125    
0.5    0.46875    0.4375    0.40625    0.375    
0.34375    0.3125    0.28125    0.25    0.21875    
0.1875    0.15625    0.125    0.09375    0.0625    
0.03125    0.0    0.96875    1.0    0.9375    
0.90625    0.875    0.84375    0.8125    0.78125    
0.75    0.71875    0.6875    0.65625    0.625    
0.59375    0.5625    0.53125    0.5    0.46875    
0.4375    0.40625    0.375    0.34375    0.3125    
0.28125    0.25    0.21875    0.1875    0.15625    
0.125    0.09375    0.0625    0.03125    0.0    
0.96875    1.0    0.9375    0.90625    0.875    
0.84375    0.8125    0.78125    0.75    0.71875    
0.6875    0.65625    0.625    0.59375    0.5625    
0.53125    0.5    0.46875    0.4375    0.40625    
0.375    0.34375    0.3125    0.28125    0.25    
0.21875    0.1875    0.15625    0.125    0.09375    
0.0625    0.03125    0.0    0.96875    1.0    
0.9375    0.90625    0.875    0.84375    0.8125    
0.78125    0.75    0.71875    0.6875    0.65625    
0.625    0.59375    0.5625    0.53125    0.5    
0.46875    0.4375    0.40625    0.375    0.34375    
0.3125    0.28125    0.25    0.21875    0.1875    
0.15625    0.125    0.09375    0.0625    0.03125    
0.0    0.96875    1.0    0.9375    0.90625    
0.875    0.84375    0.8125    0.78125    0.75    
0.71875    0.6875    0.65625    0.625    0.59375    
0.5625    0.53125    0.5    0.46875    0.4375    
0.40625    0.375    0.34375    0.3125    0.28125    
0.25    0.21875    0.1875    0.15625    0.125    
0.09375    0.0625    0.03125    0.0    0.96875    
1.0    0.9375    0.90625    0.875    0.84375    
0.8125    0.78125    0.75    0.71875    0.6875    
0.65625    0.625    0.59375    0.5625    0.53125    
0.5    0.46875    0.4375    0.40625    0.375    
0.34375    0.3125    0.28125    0.25    0.21875    
0.1875    0.15625    0.125    0.09375    0.0625    
0.03125    0.0    0.96875    1.0    0.9375    
0.90625    0.875    0.84375    0.8125    0.78125    
0.75    0.71875    0.6875    0.65625    0.625    
0.59375    0.5625    0.53125    0.5    0.46875    
0.4375    0.40625    0.375    0.34375    0.3125    
0.28125    0.25    0.21875    0.1875    0.15625    
0.125    0.09375    0.0625    0.03125    0.0    
0.96875    1.0    0.9375    0.90625    0.875    
0.84375    0.8125    0.78125    0.75    0.71875    
0.6875    0.65625    0.625    0.59375    0.5625    
0.53125    0.5    0.46875    0.4375    0.40625    
0.375    0.34375    0.3125    0.28125    0.25    
0.21875    0.1875    0.15625    0.125    0.09375    
0.0625    0.03125    0.0    0.96875    0.9375    
0.90625    0.875    0.84375    0.8125    0.78125    
0.75    0.71875    0.6875    0.65625    0.625    
0.59375    0.5625    0.53125    0.5    0.46875    
0.4375    0.40625    0.375    0.34375    0.3125    
0.28125    0.25    0.21875    0.1875    0.15625    
0.125    0.09375    0.0625    0.03125    1.0    
0.0    
0.0    0.0    0.0    0.0    0.0    
0.0    0.0    0.0    0.0    0.0    
0.0    0.0    0.0    0.0    0.0    
0.0    0.0    0.0    0.0    0.0    
0.0    0.0    0.0    0.0    0.0    
0.0    0.0    0.0    0.0    0.0    
0.0    0.0    0.0    0.0    0.0    
0.0    0.0    0.0    0.0    0.0    
0.0    0.0    0.0    0.0    0.0    
0.0    0.0    0.0    0.0    0.0    
0.0    0.0    0.0    0.0    0.0    
0.0    0.0    0.0    0.0    0.0    
0.0    0.0    0.0    0.0    0.0    
0.0    0.0    0.0    0.0    0.0    
0.0    0.0    0.0    0.0    0.0    
0.0    0.0    0.0    0.0    0.0    
0.0    0.0    0.0    0.0    0.0    
0.0    0.0    0.0    0.0    0.0    
0.0    0.0    0.0    0.0    0.0    
0.0    0.0    0.0    0.0    0.0    
0.0    0.0    0.0    0.0    0.0    
0.0    0.0    0.0    0.0    0.0    
0.0    0.0    0.0    0.0    0.0    
0.0    0.0    0.0    0.0    0.0    
0.0    0.0    0.0    0.0    0.0    
0.0    0.0    0.0    0.0    0.0    
0.0    0.0    0.0    0.0    0.0    
0.0    0.0    0.0    0.0    0.0    
0.0    0.0    0.0    0.0    0.0    
0.0    0.0    0.0    0.0    0.0    
0.0    0.0    0.0    0.0    0.0    
0.0    0.0    0.0    0.0    0.0    
0.0    0.0    0.0    0.0    0.0    
0.0    0.0    0.0    0.0    0.0    
0.0    0.0    0.0    0.0    0.0    
0.0    0.0    0.0    0.0    0.0    
0.0    0.0    0.0    0.0    0.0    
0.0    0.0    0.0    0.0    0.0    
0.0    0.0    0.0    0.0    0.0    
0.0    0.0    0.0    0.0    0.0    
0.0    0.0    0.0    0.0    0.0    
0.0    0.0    0.0    0.0    0.0    
0.0    0.0    0.0    0.0    0.0    
0.0    0.0    0.0    0.0    0.0    
0.0    0.0    0.0    0.0    0.0    
0.0    0.0    0.0    0.0    0.0    
0.0    0.0    0.0    0.0    0.0    
0.0    0.0    0.0    0.0    0.0    
0.0    0.0    0.0    0.0    0.0    
0.0    0.0    0.0    0.0    0.0    
0.0    0.0    0.0    0.0    0.0    
0.0    0.0    0.0    0.0    0.0    
0.0    0.0    0.0    0.0    0.0    
0.0    0.0    0.0    0.0    0.0    
0.0    0.0    0.0    0.0    0.0    
0.0    0.0    0.0    0.0    0.0    
0.0    0.0    0.0    0.0    0.0    
0.0    0.0    0.0    0.0    0.0    
0.0    0.0    0.0    0.0    0.0    
0.0    0.0    0.0    0.0    0.0    
0.0    0.0    0.0    0.0    0.0    
0.0    0.0    0.0    0.0    0.0    
0.0    0.0    0.0    0.0    0.0    
0.0    0.0    0.0    0.0    0.0    
0.0    0.0    0.0    0.0    0.0    
0.0    0.0    0.0    0.0    0.0    
0.0    0.0    0.0    0.0    0.0    
0.0    0.0    0.0    0.0    0.0    
0.0    0.0    0.0    0.0    0.0    
0.0    0.0    0.0    0.0    0.0    
0.0    0.0    0.0    0.0    0.0    
0.0    0.0    0.0    0.0    0.0    
0.0    0.0    0.0    0.0    0.0    
0.0    0.0    0.0    0.0    0.0    
0.0    0.0    0.0    0.0    0.0    
0.0    0.0    0.0    0.0    0.0    
0.0    0.0    0.0    0.0    0.0    
0.0    0.0    0.0    0.0    0.0    
0.0    0.0    0.0    0.0    0.0    
0.0    0.0    0.0    0.0    0.0    
0.0    0.0    0.0    0.0    0.0    
0.0    0.0    0.0    0.0    0.0    
0.0    0.0    0.0    0.0    0.0    
0.0    0.0    0.0    0.0    0.0    
0.0    0.0    0.0    0.0    0.0    
0.0    0.0    0.0    0.0    0.0    
0.0    0.0    0.0    0.0    0.0    
0.0    0.0    0.0    0.0    0.0    
0.0    0.0    0.0    0.0    0.0    
0.0    0.0    0.0    0.0    0.0    
0.0    0.0    0.0    0.0    0.0    
0.0    0.0    0.0    0.0    0.0    
0.0    0.0    0.0    0.0    0.0    
0.0    0.0    0.0    0.0    0.0    
0.0    0.0    0.0    0.0    0.0    
0.0    0.0    0.0    0.0    0.0    
0.0    0.0    0.0    0.0    0.0    
0.0    0.0    0.0    0.0    0.0    
0.0    0.0    0.0    0.0    0.0    
0.0    0.0    0.0    0.0    0.0    
0.0    0.0    0.0    0.0    0.0    
0.0    0.0    0.0    0.0    0.0    
0.0    0.0    0.0    0.0    0.0    
0.0    0.0    0.0    0.0    0.0    
0.0    0.0    0.0    0.0    0.0    
0.0    0.0    0.0    0.0    0.0    
0.0    0.0    0.0    0.0    0.0    
0.0    0.0    0.0    0.0    0.0    
0.0    0.0    0.0    0.0    0.0    
0.0    0.0    0.0    0.0    0.0    
0.0    0.0    0.0    0.0    0.0    
0.0    0.0    0.0    0.0    0.0    
0.0    
387.37577444    362.248888778    387.254208965    337.480582838    361.89030904    
313.2902869    336.902572739    289.870492032    312.519785723    267.380369982    
288.940819027    245.942634868    266.327982848    225.643383742    244.804150604    
206.534305533    224.453210538    188.636502737    205.323029766    171.945192387    
187.430009926    156.434675421    170.764398582    142.063128948    155.295704496    
128.776937919    140.977773032    116.514419507    127.753264817    105.208894325    
115.557425769    94.7911261134    104.32113684    85.191190379    93.9732931126    
76.339850858    84.4425936379    68.169526839    75.6588348386    60.61493013    
67.5537990101    53.6134418462    60.061821215    47.1052884919    53.1201064288    
41.0335665185    46.668856669    35.3441543538    40.6512562738    29.9855428368    
35.0133533319    24.9086072589    29.7038665323    20.0663390001    24.6739396499    
15.4135493767    19.8768600859    10.9065554591    15.2677534804    6.50285402368    
10.8032628312    2.16078847098    6.44121805694    2.14029981153    387.004961333    
361.155565625    335.719613275    310.945464101    287.045015353    264.186591583    
242.492773946    222.042277783    202.874592788    184.996108304    168.386687188    
153.005970592    138.798993498    125.700922162    113.640881516    102.544933752    
92.3383154546    82.9470558201    74.2990954508    66.3250127639    58.9584489162    
52.1363056347    45.798775146    39.8892482743    34.3541358865    29.1426300722    
24.2064245073    19.4994080505    14.9773414957    10.5975242644    6.31845554108    
2.09949251848    386.61503207    360.007378845    333.874850622    308.497442032    
284.107186675    260.88059415    238.938075773    218.348533811    199.136955246    
181.293143255    164.78027121    149.542497116    135.511308132    122.610548742    
110.760244302    99.879401118    89.8879790542    80.7082186569    72.265478302    
64.4887076017    57.3106559775    50.6678919777    44.5006899411    38.7528257317    
33.3713118154    28.3060933174    23.5097202195    18.9370060857    14.5446801706    
10.2910372082    6.13558734106    2.03870724378    386.062820171    358.384067052    
331.274968321    305.062266705    280.005695134    256.290522531    234.03040114    
213.27682639    194.031551073    176.259238198    159.898757214    144.872438458    
131.093193099    118.469720293    106.910145753    96.3244472824    86.625980906    
77.7323613699    69.5658914194    62.053683286    55.1275753409    48.7239162878    
42.7832668455    37.2500528382    32.0721922762    27.2007111196    22.5893569335    
18.1942158775    13.9733358788    9.88635707088    5.8941493953    1.95845636268    
385.315001727    356.191100861    327.77868889    300.47096131    274.562804596    
250.245399663    227.616179824    206.69681949    187.453184407    169.813501191    
153.683080929    138.955306338    125.519305445    113.264993508    102.086171061    
91.8822612795    82.5591358445    74.0293544244    66.212042649    59.0325587132    
52.4220457473    46.3169309258    40.6584082591    35.3919264495    30.4666932887    
25.8352019158    21.4527804898    17.2771645932    13.2680903879    9.38690582146    
5.59619682403    1.85942518037    384.321087602    353.286645767    323.177725053    
294.480085029    267.529162251    242.512091672    219.492098967    198.4410873    
179.270865827    161.858501182    146.06475892    131.746400463    118.763728778    
106.984777172    96.2872836435    86.5592908675    77.6989467061    69.6138777727    
62.2203659792    55.4424631124    49.2111179545    43.4633533579    38.1415087691    
33.192551371    28.5674524785    24.2206227368    20.1093984949    16.1935716038    
12.4349552527    8.79697901956    5.24430692357    1.7424727194    383.003790512    
349.456669546    317.165480513    286.742491484    258.561667685    232.781705782    
209.399037041    188.304564881    169.33069038    152.284878748    136.97105306    
123.201807767    110.804431985    99.6231027048    89.5188954214    80.3686717876    
72.0634822872    64.5068439287    57.6130803322    51.3058097537    45.5166095544    
40.1838557391    35.25172205    30.6693177528    26.389942489    22.370438035    
18.5706191319    14.9527680637    11.4811799967    8.1217481012    4.84157914725    
1.60863149923    381.241195411    344.370761385    309.285035959    276.762732695    
247.193311204    220.654026707    197.017778506    176.047444772    157.462452032    
140.979270335    126.332766766    113.285345518    101.629088646    91.184306197    
81.796523505    73.3330185288    65.6794666813    58.736935278    52.419301624    
46.6510859743    41.3656547313    36.5037379577    32.0122059066    27.8430550727    
23.952561666    20.3005677638    16.8498719199    13.5657015146    10.4152485679    
7.36725425653    4.39163008653    1.4591056335    378.831425155    337.500144619    
298.841169231    263.830092121    232.794817711    205.623311317    181.970605479    
161.404983644    143.492402612    127.836983759    114.095398119    101.977718856    
91.2422708492    81.6885098932    73.1498738343    65.4874121018    58.5844305929    
52.3421288396    46.6761048748    41.5135777525    36.7911854059    32.4532354231    
28.4503085189    24.7381349417    21.2766813194    18.0293994187    14.9625992584    
12.0449175007    9.24685850317    6.54039028846    3.89858132146    1.29526658717    
375.415785741    327.957222702    284.749404218    246.921648836    214.532556187    
187.073795353    163.83634843    144.109481687    127.26519099    112.780863944    
100.234123065    89.2878609088    79.6737659692    71.1775886593    63.6270498044    
56.8823254178    50.8287147164    45.3710445802    40.4294112522    35.9359347249    
31.8322736891    28.0677097842    24.5976577815    21.3824948362    18.3866292351    
15.5777493206    12.9262081854    10.4045107219    7.98687765549    5.648867085    
3.36703834123    1.11864598424    370.290280846    314.163556224    265.277576095    
224.574542809    191.339962837    164.302965461    142.191511185    123.931403665    
108.678015694    95.7871579387    84.7723692643    75.2658357183    66.9873434331    
59.7210289427    53.2984112788    47.5861250206    42.4770582475    37.8839234856    
33.7345608032    29.968476181    26.5342648187    23.3876722219    20.4901179683    
17.8075573703    15.3095914515    12.9687604332    10.7599734337    8.6600395425    
6.64727431219    4.70116206962    2.80205898326    0.93092499751    361.872062261    
293.129145252    237.622801123    194.758983458    161.949786882    136.606592455    
116.695327171    100.746606077    87.7283101662    76.917382833    67.8023603151    
60.0157692458    53.2887430809    47.4207723771    42.2594413253    37.6867051157    
33.6094697454    29.9530302897    26.6564322735    23.6691443572    20.9486371645    
18.4585962993    16.1675844846    14.0480252124    12.0754187572    10.227727519    
8.48488556831    6.82839969964    5.24101798208    3.70644790719    2.20911053803    
0.733920022635    345.940885206    258.858161397    197.325499681    154.888803012    
125.09360877    103.478290297    87.2365989563    74.6313832917    64.5712360474    
56.3517028971    49.5039199019    43.7061378522    38.7310872509    34.4138761421    
30.6318765126    27.2917843537    24.321085312    21.6622956373    19.268993628    
17.1030317944    15.1325431689    13.3304913133    11.6735984474    10.1415402279    
8.71633083835    7.38184531145    6.12344161708    4.92765570409    3.78195000986    
2.67450104977    1.59401524398    0.529564581842    308.974202371    199.037115447    
137.932233189    102.377120134    80.0575548817    64.9763610007    54.1413950572    
45.971092077    39.5735478251    34.4142727952    30.1554785323    26.5737749982    
23.5155919167    20.8717684152    18.5624042174    16.527470462    14.7207915001    
13.1060733076    11.654214796    10.3414460128    9.14801239381    8.0572273284    
7.05477775605    6.12820640671    5.26651905179    4.45988126746    3.69937988191    
2.9768314885    2.28462530411    1.61559104313    0.962884815395    0.319887644401    
199.8930112    90.383864828    52.9891974937    36.6298894494    27.783129619    
22.2282037622    18.38152819    15.5380421287    13.3375903752    11.57636192    
10.1299464279    8.91789168482    7.88573699618    6.99520137732    6.2185014733    
5.53490176994    4.92853691237    4.38699129031    3.90034622966    3.46052506088    
3.0608330602    2.6956278456    2.36007883789    2.04998858761    1.76165769235    
1.49178082282    1.23736515351    0.995665063562    0.764128675294    0.540353009683    
0.32204533044    0.106988828936    
0.984375    0.953125    0.984375    0.921875    0.953125    
0.890625    0.921875    0.859375    0.890625    0.828125    
0.859375    0.796875    0.828125    0.765625    0.796875    
0.734375    0.765625    0.703125    0.734375    0.671875    
0.703125    0.640625    0.671875    0.609375    0.640625    
0.578125    0.609375    0.546875    0.578125    0.515625    
0.546875    0.484375    0.515625    0.453125    0.484375    
0.421875    0.453125    0.390625    0.421875    0.359375    
0.390625    0.328125    0.359375    0.296875    0.328125    
0.265625    0.296875    0.234375    0.265625    0.203125    
0.234375    0.171875    0.203125    0.140625    0.171875    
0.109375    0.140625    0.078125    0.109375    0.046875    
0.078125    0.015625    0.046875    0.015625    0.984375    
0.953125    0.921875    0.890625    0.859375    0.828125    
0.796875    0.765625    0.734375    0.703125    0.671875    
0.640625    0.609375    0.578125    0.546875    0.515625    
0.484375    0.453125    0.421875    0.390625    0.359375    
0.328125    0.296875    0.265625    0.234375    0.203125    
0.171875    0.140625    0.109375    0.078125    0.046875    
0.015625    0.984375    0.953125    0.921875    0.890625    
0.859375    0.828125    0.796875    0.765625    0.734375    
0.703125    0.671875    0.640625    0.609375    0.578125    
0.546875    0.515625    0.484375    0.453125    0.421875    
0.390625    0.359375    0.328125    0.296875    0.265625    
0.234375    0.203125    0.171875    0.140625    0.109375    
0.078125    0.046875    0.015625    0.984375    0.953125    
0.921875    0.890625    0.859375    0.828125    0.796875    
0.765625    0.734375    0.703125    0.671875    0.640625    
0.609375    0.578125    0.546875    0.515625    0.484375    
0.453125    0.421875    0.390625    0.359375    0.328125    
0.296875    0.265625    0.234375    0.203125    0.171875    
0.140625    0.109375    0.078125    0.046875    0.015625    
0.984375    0.953125    0.921875    0.890625    0.859375    
0.828125    0.796875    0.765625    0.734375    0.703125    
0.671875    0.640625    0.609375    0.578125    0.546875    
0.515625    0.484375    0.453125    0.421875    0.390625    
0.359375    0.328125    0.296875    0.265625    0.234375    
0.203125    0.171875    0.140625    0.109375    0.078125    
0.046875    0.015625    0.984375    0.953125    0.921875    
0.890625    0.859375    0.828125    0.796875    0.765625    
0.734375    0.703125    0.671875    0.640625    0.609375    
0.578125    0.546875    0.515625    0.484375    0.453125    
0.421875    0.390625    0.359375    0.328125    0.296875    
0.265625    0.234375    0.203125    0.171875    0.140625    
0.109375    0.078125    0.046875    0.015625    0.984375    
0.953125    0.921875    0.890625    0.859375    0.828125    
0.796875    0.765625    0.734375    0.703125    0.671875    
0.640625    0.609375    0.578125    0.546875    0.515625    
0.484375    0.453125    0.421875    0.390625    0.359375    
0.328125    0.296875    0.265625    0.234375    0.203125    
0.171875    0.140625    0.109375    0.078125    0.046875    
0.015625    0.984375    0.953125    0.921875    0.890625    
0.859375    0.828125    0.796875    0.765625    0.734375    
0.703125    0.671875    0.640625    0.609375    0.578125    
0.546875    0.515625    0.484375    0.453125    0.421875    
0.390625    0.359375    0.328125    0.296875    0.265625    
0.234375    0.203125    0.171875    0.140625    0.109375    
0.078125    0.046875    0.015625    0.984375    0.953125    
0.921875    0.890625    0.859375    0.828125    0.796875    
0.765625    0.734375    0.703125    0.671875    0.640625    
0.609375    0.578125    0.546875    0.515625    0.484375    
0.453125    0.421875    0.390625    0.359375    0.328125    
0.296875    0.265625    0.234375    0.203125    0.171875    
0.140625    0.109375    0.078125    0.046875    0.015625    
0.984375    0.953125    0.921875    0.890625    0.859375    
0.828125    0.796875    0.765625    0.734375    0.703125    
0.671875    0.640625    0.609375    0.578125    0.546875    
0.515625    0.484375    0.453125    0.421875    0.390625    
0.359375    0.328125    0.296875    0.265625    0.234375    
0.203125    0.171875    0.140625    0.109375    0.078125    
0.046875    0.015625    0.984375    0.953125    0.921875    
0.890625    0.859375    0.828125    0.796875    0.765625    
0.734375    0.703125    0.671875    0.640625    0.609375    
0.578125    0.546875    0.515625    0.484375    0.453125    
0.421875    0.390625    0.359375    0.328125    0.296875    
0.265625    0.234375    0.203125    0.171875    0.140625    
0.109375    0.078125    0.046875    0.015625    0.984375    
0.953125    0.921875    0.890625    0.859375    0.828125    
0.796875    0.765625    0.734375    0.703125    0.671875    
0.640625    0.609375    0.578125    0.546875    0.515625    
0.484375    0.453125    0.421875    0.390625    0.359375    
0.328125    0.296875    0.265625    0.234375    0.203125    
0.171875    0.140625    0.109375    0.078125    0.046875    
0.015625    0.984375    0.953125    0.921875    0.890625    
0.859375    0.828125    0.796875    0.765625    0.734375    
0.703125    0.671875    0.640625    0.609375    0.578125    
0.546875    0.515625    0.484375    0.453125    0.421875    
0.390625    0.359375    0.328125    0.296875    0.265625    
0.234375    0.203125    0.171875    0.140625    0.109375    
0.078125    0.046875    0.015625    0.984375    0.953125    
0.921875    0.890625    0.859375    0.828125    0.796875    
0.765625    0.734375    0.703125    0.671875    0.640625    