Title = " tecplot file for 2D Cavity problem " 
variables = "x", "y", "z", "velX", "cellCentroidY" 
Zone T = "nmesh0" N = 566 E = 512 DATAPACKING = BLOCK, VARLOCATION = ([4-5]=CELLCENTERED),  ZONETYPE=FEQUADRILATERAL 
0.96875    1.0    0.96875    0.96875    1.0    
0.96875    1.0    0.96875    1.0    0.96875    
1.0    0.96875    1.0    0.96875    1.0    
0.96875    1.0    0.96875    1.0    0.96875    
1.0    0.96875    1.0    0.96875    1.0    
0.96875    1.0    0.96875    1.0    0.96875    
1.0    0.96875    1.0    0.96875    1.0    
0.96875    1.0    0.96875    1.0    0.9375    
0.9375    0.9375    0.9375    0.9375    0.9375    
0.9375    0.9375    0.9375    0.9375    0.9375    
0.9375    0.9375    0.9375    0.9375    0.9375    
0.9375    0.9375    0.9375    0.9375    0.90625    
0.90625    0.90625    0.90625    0.90625    0.90625    
0.90625    0.90625    0.90625    0.90625    0.90625    
0.90625    0.90625    0.90625    0.90625    0.90625    
0.90625    0.90625    0.90625    0.90625    0.875    
0.875    0.875    0.875    0.875    0.875    
0.875    0.875    0.875    0.875    0.875    
0.875    0.875    0.875    0.875    0.875    
0.875    0.875    0.875    0.875    0.84375    
0.84375    0.84375    0.84375    0.84375    0.84375    
0.84375    0.84375    0.84375    0.84375    0.84375    
0.84375    0.84375    0.84375    0.84375    0.84375    
0.84375    0.84375    0.84375    0.84375    0.8125    
0.8125    0.8125    0.8125    0.8125    0.8125    
0.8125    0.8125    0.8125    0.8125    0.8125    
0.8125    0.8125    0.8125    0.8125    0.8125    
0.8125    0.8125    0.8125    0.8125    0.78125    
0.78125    0.78125    0.78125    0.78125    0.78125    
0.78125    0.78125    0.78125    0.78125    0.78125    
0.78125    0.78125    0.78125    0.78125    0.78125    
0.78125    0.78125    0.78125    0.78125    0.75    
0.75    0.75    0.75    0.75    0.75    
0.75    0.75    0.75    0.75    0.75    
0.75    0.75    0.75    0.75    0.75    
0.75    0.75    0.75    0.71875    0.71875    
0.71875    0.71875    0.71875    0.71875    0.71875    
0.71875    0.71875    0.71875    0.71875    0.71875    
0.71875    0.71875    0.71875    0.71875    0.71875    
0.71875    0.71875    0.6875    0.6875    0.6875    
0.6875    0.6875    0.6875    0.6875    0.6875    
0.6875    0.6875    0.6875    0.6875    0.6875    
0.6875    0.6875    0.6875    0.6875    0.6875    
0.6875    0.65625    0.65625    0.65625    0.65625    
0.65625    0.65625    0.65625    0.65625    0.65625    
0.65625    0.65625    0.65625    0.65625    0.65625    
0.65625    0.65625    0.65625    0.65625    0.65625    
0.625    0.625    0.625    0.625    0.625    
0.625    0.625    0.625    0.625    0.625    
0.625    0.625    0.625    0.625    0.625    
0.625    0.625    0.625    0.625    0.59375    
0.59375    0.59375    0.59375    0.59375    0.59375    
0.59375    0.59375    0.59375    0.59375    0.59375    
0.59375    0.59375    0.59375    0.59375    0.59375    
0.59375    0.5625    0.5625    0.5625    0.5625    
0.5625    0.5625    0.5625    0.5625    0.5625    
0.5625    0.5625    0.5625    0.5625    0.5625    
0.5625    0.5625    0.5625    0.5625    0.53125    
0.53125    0.53125    0.53125    0.53125    0.53125    
0.53125    0.53125    0.53125    0.53125    0.53125    
0.53125    0.53125    0.53125    0.53125    0.53125    
0.53125    0.53125    0.5    0.5    0.5    
0.5    0.5    0.5    0.5    0.5    
0.5    0.5    0.5    0.5    0.5    
0.5    0.5    0.5    0.5    0.5    
0.46875    0.46875    0.46875    0.46875    0.46875    
0.46875    0.46875    0.46875    0.46875    0.46875    
0.46875    0.46875    0.46875    0.46875    0.46875    
0.46875    0.46875    0.46875    0.4375    0.4375    
0.4375    0.4375    0.4375    0.4375    0.4375    
0.4375    0.4375    0.4375    0.4375    0.4375    
0.4375    0.4375    0.4375    0.4375    0.4375    
0.4375    0.40625    0.40625    0.40625    0.40625    
0.40625    0.40625    0.40625    0.40625    0.40625    
0.40625    0.40625    0.40625    0.40625    0.40625    
0.40625    0.40625    0.40625    0.375    0.375    
0.375    0.375    0.375    0.375    0.375    
0.375    0.375    0.375    0.375    0.375    
0.375    0.375    0.375    0.34375    0.34375    
0.34375    0.34375    0.34375    0.34375    0.34375    
0.34375    0.34375    0.34375    0.34375    0.34375    
0.34375    0.34375    0.34375    0.3125    0.3125    
0.3125    0.3125    0.3125    0.3125    0.3125    
0.3125    0.3125    0.3125    0.3125    0.3125    
0.3125    0.3125    0.3125    0.28125    0.28125    
0.28125    0.28125    0.28125    0.28125    0.28125    
0.28125    0.28125    0.28125    0.28125    0.28125    
0.28125    0.28125    0.28125    0.25    0.25    
0.25    0.25    0.25    0.25    0.25    
0.25    0.25    0.25    0.25    0.25    
0.25    0.25    0.25    0.21875    0.21875    
0.21875    0.21875    0.21875    0.21875    0.21875    
0.21875    0.21875    0.21875    0.21875    0.21875    
0.21875    0.21875    0.21875    0.1875    0.1875    
0.1875    0.1875    0.1875    0.1875    0.1875    
0.1875    0.1875    0.1875    0.1875    0.1875    
0.1875    0.1875    0.1875    0.15625    0.15625    
0.15625    0.15625    0.15625    0.15625    0.15625    
0.15625    0.15625    0.15625    0.15625    0.15625    
0.15625    0.125    0.125    0.125    0.125    
0.125    0.125    0.125    0.125    0.125    
0.125    0.125    0.125    0.125    0.09375    
0.09375    0.09375    0.09375    0.09375    0.09375    
0.09375    0.09375    0.09375    0.09375    0.09375    
0.09375    0.09375    0.09375    0.0625    0.0625    
0.0625    0.0625    0.0625    0.0625    0.0625    
0.0625    0.0625    0.0625    0.0625    0.0625    
0.0625    0.0625    0.03125    0.03125    0.03125    
0.03125    0.03125    0.03125    0.03125    0.03125    
0.03125    0.03125    0.03125    0.03125    0.03125    
0.03125    0.0    0.0    0.0    0.0    
0.0    0.0    0.0    0.0    0.0    
0.0    0.0    0.0    0.0    0.0    
1.0    
0.96875    0.96875    1.0    0.9375    0.9375    
0.90625    0.90625    0.875    0.875    0.84375    
0.84375    0.8125    0.8125    0.78125    0.78125    
0.75    0.75    0.71875    0.71875    0.6875    
0.6875    0.65625    0.65625    0.625    0.625    
0.59375    0.59375    0.5625    0.5625    0.53125    
0.53125    0.5    0.5    0.46875    0.46875    
0.4375    0.4375    0.40625    0.40625    0.96875    
1.0    0.9375    0.90625    0.875    0.84375    
0.8125    0.78125    0.75    0.71875    0.6875    
0.65625    0.625    0.59375    0.5625    0.53125    
0.5    0.46875    0.4375    0.40625    0.96875    
1.0    0.9375    0.90625    0.875    0.84375    
0.8125    0.78125    0.75    0.71875    0.6875    
0.65625    0.625    0.59375    0.5625    0.53125    
0.5    0.46875    0.4375    0.40625    0.96875    
1.0    0.9375    0.90625    0.875    0.84375    
0.8125    0.78125    0.75    0.71875    0.6875    
0.65625    0.625    0.59375    0.5625    0.53125    
0.5    0.46875    0.4375    0.40625    0.96875    
1.0    0.9375    0.90625    0.875    0.84375    
0.8125    0.78125    0.75    0.71875    0.6875    
0.65625    0.625    0.59375    0.5625    0.53125    
0.5    0.46875    0.4375    0.40625    0.96875    
1.0    0.9375    0.90625    0.875    0.84375    
0.8125    0.78125    0.75    0.71875    0.6875    
0.65625    0.625    0.59375    0.5625    0.53125    
0.5    0.46875    0.4375    0.40625    0.96875    
1.0    0.9375    0.90625    0.875    0.84375    
0.8125    0.78125    0.75    0.71875    0.6875    
0.65625    0.625    0.59375    0.5625    0.53125    
0.5    0.46875    0.4375    0.40625    0.96875    
1.0    0.9375    0.90625    0.875    0.84375    
0.8125    0.78125    0.75    0.71875    0.6875    
0.65625    0.625    0.59375    0.5625    0.53125    
0.5    0.46875    0.4375    0.96875    1.0    
0.9375    0.90625    0.875    0.84375    0.8125    
0.78125    0.75    0.71875    0.6875    0.65625    
0.625    0.59375    0.5625    0.53125    0.5    
0.46875    0.4375    0.96875    1.0    0.9375    
0.90625    0.875    0.84375    0.8125    0.78125    
0.75    0.71875    0.6875    0.65625    0.625    
0.59375    0.5625    0.53125    0.5    0.46875    
0.4375    0.96875    1.0    0.9375    0.90625    
0.875    0.84375    0.8125    0.78125    0.75    
0.71875    0.6875    0.65625    0.625    0.59375    
0.5625    0.53125    0.5    0.46875    0.4375    
0.96875    1.0    0.9375    0.90625    0.875    
0.84375    0.8125    0.78125    0.75    0.71875    
0.6875    0.65625    0.625    0.59375    0.5625    
0.53125    0.5    0.46875    0.4375    0.96875    
1.0    0.9375    0.90625    0.875    0.84375    
0.8125    0.78125    0.75    0.71875    0.6875    
0.65625    0.625    0.59375    0.5625    0.53125    
0.5    0.96875    1.0    0.9375    0.90625    
0.875    0.84375    0.8125    0.78125    0.75    
0.71875    0.6875    0.65625    0.625    0.59375    
0.5625    0.53125    0.5    0.46875    0.96875    
1.0    0.9375    0.90625    0.875    0.84375    
0.8125    0.78125    0.75    0.71875    0.6875    
0.65625    0.625    0.59375    0.5625    0.53125    
0.5    0.46875    0.96875    1.0    0.9375    
0.90625    0.875    0.84375    0.8125    0.78125    
0.75    0.71875    0.6875    0.65625    0.625    
0.59375    0.5625    0.53125    0.5    0.46875    
0.96875    1.0    0.9375    0.90625    0.875    
0.84375    0.8125    0.78125    0.75    0.71875    
0.6875    0.65625    0.625    0.59375    0.5625    
0.53125    0.5    0.46875    0.96875    1.0    
0.9375    0.90625    0.875    0.84375    0.8125    
0.78125    0.75    0.71875    0.6875    0.65625    
0.625    0.59375    0.5625    0.53125    0.5    
0.46875    0.96875    1.0    0.9375    0.90625    
0.875    0.84375    0.8125    0.78125    0.75    
0.71875    0.6875    0.65625    0.625    0.59375    
0.5625    0.53125    0.5    0.96875    1.0    
0.9375    0.90625    0.875    0.84375    0.8125    
0.78125    0.75    0.71875    0.6875    0.65625    
0.625    0.59375    0.5625    0.96875    1.0    
0.9375    0.90625    0.875    0.84375    0.8125    
0.78125    0.75    0.71875    0.6875    0.65625    
0.625    0.59375    0.5625    0.96875    1.0    
0.9375    0.90625    0.875    0.84375    0.8125    
0.78125    0.75    0.71875    0.6875    0.65625    
0.625    0.59375    0.5625    0.96875    1.0    
0.9375    0.90625    0.875    0.84375    0.8125    
0.78125    0.75    0.71875    0.6875    0.65625    
0.625    0.59375    0.5625    0.96875    1.0    
0.9375    0.90625    0.875    0.84375    0.8125    
0.78125    0.75    0.71875    0.6875    0.65625    
0.625    0.59375    0.5625    0.96875    1.0    
0.9375    0.90625    0.875    0.84375    0.8125    
0.78125    0.75    0.71875    0.6875    0.65625    
0.625    0.59375    0.5625    0.96875    1.0    
0.9375    0.90625    0.875    0.84375    0.8125    
0.78125    0.75    0.71875    0.6875    0.65625    
0.625    0.59375    0.5625    0.96875    1.0    
0.9375    0.90625    0.875    0.84375    0.8125    
0.78125    0.75    0.71875    0.6875    0.65625    
0.625    0.96875    1.0    0.9375    0.90625    
0.875    0.84375    0.8125    0.78125    0.75    
0.71875    0.6875    0.65625    0.625    0.96875    
1.0    0.9375    0.90625    0.875    0.84375    
0.8125    0.78125    0.75    0.71875    0.6875    
0.65625    0.625    0.59375    0.96875    1.0    
0.9375    0.90625    0.875    0.84375    0.8125    
0.78125    0.75    0.71875    0.6875    0.65625    
0.625    0.59375    0.96875    1.0    0.9375    
0.90625    0.875    0.84375    0.8125    0.78125    
0.75    0.71875    0.6875    0.65625    0.625    
0.59375    0.96875    0.9375    0.90625    0.875    
0.84375    0.8125    0.78125    0.75    0.71875    
0.6875    0.65625    0.625    0.59375    1.0    
1.0    
0.0    0.0    0.0    0.0    0.0    
0.0    0.0    0.0    0.0    0.0    
0.0    0.0    0.0    0.0    0.0    
0.0    0.0    0.0    0.0    0.0    
0.0    0.0    0.0    0.0    0.0    
0.0    0.0    0.0    0.0    0.0    
0.0    0.0    0.0    0.0    0.0    
0.0    0.0    0.0    0.0    0.0    
0.0    0.0    0.0    0.0    0.0    
0.0    0.0    0.0    0.0    0.0    
0.0    0.0    0.0    0.0    0.0    
0.0    0.0    0.0    0.0    0.0    
0.0    0.0    0.0    0.0    0.0    
0.0    0.0    0.0    0.0    0.0    
0.0    0.0    0.0    0.0    0.0    
0.0    0.0    0.0    0.0    0.0    
0.0    0.0    0.0    0.0    0.0    
0.0    0.0    0.0    0.0    0.0    
0.0    0.0    0.0    0.0    0.0    
0.0    0.0    0.0    0.0    0.0    
0.0    0.0    0.0    0.0    0.0    
0.0    0.0    0.0    0.0    0.0    
0.0    0.0    0.0    0.0    0.0    
0.0    0.0    0.0    0.0    0.0    
0.0    0.0    0.0    0.0    0.0    
0.0    0.0    0.0    0.0    0.0    
0.0    0.0    0.0    0.0    0.0    
0.0    0.0    0.0    0.0    0.0    
0.0    0.0    0.0    0.0    0.0    
0.0    0.0    0.0    0.0    0.0    
0.0    0.0    0.0    0.0    0.0    
0.0    0.0    0.0    0.0    0.0    
0.0    0.0    0.0    0.0    0.0    
0.0    0.0    0.0    0.0    0.0    
0.0    0.0    0.0    0.0    0.0    
0.0    0.0    0.0    0.0    0.0    
0.0    0.0    0.0    0.0    0.0    
0.0    0.0    0.0    0.0    0.0    
0.0    0.0    0.0    0.0    0.0    
0.0    0.0    0.0    0.0    0.0    
0.0    0.0    0.0    0.0    0.0    
0.0    0.0    0.0    0.0    0.0    
0.0    0.0    0.0    0.0    0.0    
0.0    0.0    0.0    0.0    0.0    
0.0    0.0    0.0    0.0    0.0    
0.0    0.0    0.0    0.0    0.0    
0.0    0.0    0.0    0.0    0.0    
0.0    0.0    0.0    0.0    0.0    
0.0    0.0    0.0    0.0    0.0    
0.0    0.0    0.0    0.0    0.0    
0.0    0.0    0.0    0.0    0.0    
0.0    0.0    0.0    0.0    0.0    
0.0    0.0    0.0    0.0    0.0    
0.0    0.0    0.0    0.0    0.0    
0.0    0.0    0.0    0.0    0.0    
0.0    0.0    0.0    0.0    0.0    
0.0    0.0    0.0    0.0    0.0    
0.0    0.0    0.0    0.0    0.0    
0.0    0.0    0.0    0.0    0.0    
0.0    0.0    0.0    0.0    0.0    
0.0    0.0    0.0    0.0    0.0    
0.0    0.0    0.0    0.0    0.0    
0.0    0.0    0.0    0.0    0.0    
0.0    0.0    0.0    0.0    0.0    
0.0    0.0    0.0    0.0    0.0    
0.0    0.0    0.0    0.0    0.0    
0.0    0.0    0.0    0.0    0.0    
0.0    0.0    0.0    0.0    0.0    
0.0    0.0    0.0    0.0    0.0    
0.0    0.0    0.0    0.0    0.0    
0.0    0.0    0.0    0.0    0.0    
0.0    0.0    0.0    0.0    0.0    
0.0    0.0    0.0    0.0    0.0    
0.0    0.0    0.0    0.0    0.0    
0.0    0.0    0.0    0.0    0.0    
0.0    0.0    0.0    0.0    0.0    
0.0    0.0    0.0    0.0    0.0    
0.0    0.0    0.0    0.0    0.0    
0.0    0.0    0.0    0.0    0.0    
0.0    0.0    0.0    0.0    0.0    
0.0    0.0    0.0    0.0    0.0    
0.0    0.0    0.0    0.0    0.0    
0.0    0.0    0.0    0.0    0.0    
0.0    0.0    0.0    0.0    0.0    
0.0    0.0    0.0    0.0    0.0    
0.0    0.0    0.0    0.0    0.0    
0.0    0.0    0.0    0.0    0.0    
0.0    0.0    0.0    0.0    0.0    
0.0    0.0    0.0    0.0    0.0    
0.0    0.0    0.0    0.0    0.0    
0.0    0.0    0.0    0.0    0.0    
0.0    0.0    0.0    0.0    0.0    
0.0    0.0    0.0    0.0    0.0    
0.0    0.0    0.0    0.0    0.0    
0.0    0.0    0.0    0.0    0.0    
0.0    0.0    0.0    0.0    0.0    
0.0    0.0    0.0    0.0    0.0    
0.0    0.0    0.0    0.0    0.0    
0.0    0.0    0.0    0.0    0.0    
0.0    0.0    0.0    0.0    0.0    
0.0    0.0    0.0    0.0    0.0    
0.0    0.0    0.0    0.0    0.0    
0.0    0.0    0.0    0.0    0.0    
0.0    0.0    0.0    0.0    0.0    
0.0    0.0    0.0    0.0    0.0    
0.0    0.0    0.0    0.0    0.0    
0.0    0.0    0.0    0.0    0.0    
0.0    0.0    0.0    0.0    0.0    
0.0    0.0    0.0    0.0    0.0    
0.0    0.0    0.0    0.0    0.0    
0.0    0.0    0.0    0.0    0.0    
0.0    0.0    0.0    0.0    0.0    
0.0    0.0    0.0    0.0    0.0    
0.0    
199.893011198    90.383864823    308.974202365    52.989197486    199.037115432    
36.6298894398    137.932233166    27.7831296087    102.377120105    22.2282037523    
80.0575548503    18.3815281823    64.9763609706    15.5380421247    54.1413950332    
13.3375903769    45.9710920641    11.5763619292    39.5735478291    10.1299464469    
34.4142728218    8.91789171522    30.1554785879    7.88573704016    26.5737750883    
6.99520143601    23.5155920473    6.21850154823    20.8717685905    5.5349018612    
18.5624044416    4.92853702019    16.5274707363    4.38699141357    14.7207918253    
3.90034636691    13.1060736805    11.6542152227    345.940885197    258.858161372    
197.325499642    154.888802962    125.093608715    103.478290245    87.2365989133    
74.6313832667    64.5712360501    56.3517029373    49.5039199901    43.7061379982    
38.7310874647    34.4138764317    30.631876885    27.2917848126    24.3210858582    
21.6622962698    19.2689943365    361.872062248    293.129145215    237.622801065    
194.758983385    161.949786802    136.606592376    116.695327104    100.746606034    
87.7283101616    76.9173828803    67.8023604293    60.0157694411    53.2887433718    
47.4207727757    42.2594418425    37.686705757    33.6094705144    29.953031177    
26.6564332824    370.290280828    314.163556174    265.277576016    224.574542709    
191.339962726    164.302965349    142.191511087    123.931403596    108.678015673    
95.7871579833    84.7723693941    75.2658359526    66.9873437907    59.7210294407    
53.2984119319    47.5861258393    42.4770592332    37.8839246315    33.7345620905    
375.415785718    327.957222636    284.749404115    246.921648704    214.532556037    
187.073795199    163.836348291    144.109481581    127.265190939    112.780863972    
100.234123196    89.2878611673    79.6737663789    71.1775892422    63.6270505806    
56.8823264017    50.8287159182    45.3710459857    40.429412853    378.831425126    
337.500144536    298.841169099    263.83009195    232.794817514    205.623311111    
181.970605286    161.404983486    143.492402517    127.836983754    114.095398233    
101.97771912    91.2422712916    81.688510542    73.1498747149    65.4874132366    
58.5844319981    52.3421305096    46.6761068009    381.241195374    344.370761279    
309.28503579    276.762732476    247.193310948    220.654026436    197.017778242    
176.047444544    157.46245187    140.979270272    126.332766839    113.285345762    
101.629089097    91.1843068861    81.7965244622    73.3330197816    65.67946825    
58.7369372    383.003790467    349.456669414    317.165480302    286.742491207    
258.561667359    232.781705429    209.399036688    188.304564561    169.330690128    
152.284878603    136.971053063    123.201807961    110.804432413    99.6231034045    
89.518896426    80.3686731224    72.0634839715    64.5068459848    384.321087546    
353.286645605    323.177724791    294.480084682    267.529161839    242.512091219    
219.492098504    198.441086862    179.270865455    161.858500921    146.064758818    
131.746400571    118.763729148    106.98477785    96.2872846697    86.5592922672    
77.6989484841    69.6138799221    385.31500166    356.191100663    327.77868857    
300.470960882    274.562804082    250.245399091    227.616179226    206.696818906    
187.453183882    169.813500777    153.683080682    138.955306317    125.519305714    
113.264994125    102.086172082    91.882262737    82.5591377288    74.0293566523    
386.06282009    358.384066814    331.274967934    305.062266185    280.005694502    
256.290521817    234.030400381    213.27682563    194.031550362    176.259237592    
159.898756777    144.872438259    131.093193213    118.469720799    106.910146734    
96.3244488112    86.6259829851    77.7323636922    386.615031975    360.007378562    
333.874850161    308.497441407    284.10718591    260.880593276    238.93807483    
218.348532845    199.136954313    181.293142416    164.780270535    149.542496683    
135.511308027    122.610549065    110.760245179    99.8794027222    387.004961222    
361.155565294    335.719612732    310.94546336    287.045014439    264.186590528    
242.492772792    222.04227658    202.874591595    184.996107188    168.386686224    
153.005969863    138.798993096    125.700922199    113.640882135    102.544935178    
387.254208837    361.890308656    336.902572104    312.519784849    288.94081794    
266.327981581    244.804149204    224.453209057    205.323028267    187.430008479    
170.764397268    155.295703401    140.977772249    127.753264446    115.557425921    
104.321137633    387.375774307    362.248888383    337.480582167    313.290285979    
289.870490871    267.380368631    245.942633359    225.643382144    206.5343039    
188.636501154    171.945190925    156.434674175    142.063128    128.776937359    
116.514419406    93.9732944089    105.208894733    94.7911270367    387.375774311    
362.248888397    337.48058219    313.290286013    289.870490916    267.380368687    
245.942633427    225.643382225    206.534303996    188.636501266    171.945191054    
156.434674321    142.063128161    128.776937522    116.514419546    105.208894805    
94.791127016    387.254208851    361.890308698    336.902572174    312.519784949    
288.940818072    266.327981747    244.804149406    224.453209298    205.323028551    
187.430008811    170.764397651    155.295703836    140.977772732    127.753264952    
115.557426373    104.321137848    93.9732944701    387.004961244    361.155565362    
335.719612846    310.945463523    287.045014653    264.186590796    242.492773119    
222.042276971    202.874592056    184.996107725    168.386686845    153.005970577    
138.798993909    125.700923105    113.640883043    102.544935668    386.615032005    
360.007378653    333.874850315    308.497441626    284.107186198    260.880593637    
238.938075269    218.34853337    199.13695493    181.293143136    164.780271369    
149.542497649    135.511309159    122.610550432    386.062820127    358.384066925    
331.274968122    305.062266451    280.005694853    256.290522257    234.030400916    
213.276826269    194.031551112    176.259238465    159.898757788    144.872439429    
131.093194582    118.469722431    385.315001702    356.19110079    327.778688784    
300.470961187    274.562804482    250.245399593    227.616179837    206.696819635    
187.453184738    169.813501771    153.683081828    138.955307636    125.519307234    
113.264995891    384.321087593    353.286645743    323.177725025    294.480085014    
267.529162275    242.512091767    219.49209917    198.441087656    179.270866387    
161.858502002    146.06476006    131.746401989    118.763730759    106.984779676    
383.003790515    349.456669559    317.165480546    286.742491554    258.561667815    
232.781706002    209.399037387    188.304565395    169.330691109    152.284879742    
136.971054371    123.201809448    110.804434082    99.623105254    381.241195423    
344.370761425    309.285036036    276.762732825    247.193311409    220.654027015    
197.01777895    176.047445392    157.462452871    140.97927144    126.332768188    
113.285347301    101.629090818    91.1843087433    378.831425173    337.500144676    
298.841169336    263.830092289    232.794817961    205.623311675    181.970605977    
161.404984317    143.492403505    127.836984918    114.095399597    101.97772071    
91.2422731058    81.6885124225    375.415785762    327.957222767    284.749404336    
246.921649019    214.532556454    187.073795726    163.836348939    144.109482366    
127.265191879    112.780865094    100.23412454    89.2878628012    370.290280867    
314.16355629    265.277576212    224.574542988    191.339963095    164.302965817    
142.191511666    123.931404301    108.678016524    95.7871590083    84.772370636    
75.2658374726    361.87206228    293.129145311    237.622801227    194.758983617    
161.949787108    136.606592766    116.695327588    100.746606625    87.7283108795    
76.9173837507    67.8023614893    60.0157707477    345.940885221    258.858161443    
197.325499763    154.888803136    125.093608946    103.478290538    87.2365992783    
74.6313837142    64.5712365949    56.3517035974    49.5039207893    43.7061389566    
308.97420238    199.037115476    137.932233242    102.377120213    80.0575549935    
64.9763611531    54.1413952604    45.971092343    39.5735481683    34.414273232    
30.1554790791    38.7310884987    26.5737756689    23.5155926937    199.893011203    
90.3838648382    52.9891975116    36.6298894765    27.7831296574    22.2282038143    
18.3815282595    15.5380422193    13.3375904917    11.576362067    10.1299466099    
8.91789190354    7.8857372418    
0.984375    0.953125    0.984375    0.921875    0.953125    
0.890625    0.921875    0.859375    0.890625    0.828125    
0.859375    0.796875    0.828125    0.765625    0.796875    
0.734375    0.765625    0.703125    0.734375    0.671875    
0.703125    0.640625    0.671875    0.609375    0.640625    
0.578125    0.609375    0.546875    0.578125    0.515625    
0.546875    0.484375    0.515625    0.453125    0.484375    
0.421875    0.453125    0.421875    0.984375    0.953125    
0.921875    0.890625    0.859375    0.828125    0.796875    
0.765625    0.734375    0.703125    0.671875    0.640625    
0.609375    0.578125    0.546875    0.515625    0.484375    
0.453125    0.421875    0.984375    0.953125    0.921875    
0.890625    0.859375    0.828125    0.796875    0.765625    
0.734375    0.703125    0.671875    0.640625    0.609375    
0.578125    0.546875    0.515625    0.484375    0.453125    
0.421875    0.984375    0.953125    0.921875    0.890625    
0.859375    0.828125    0.796875    0.765625    0.734375    
0.703125    0.671875    0.640625    0.609375    0.578125    
0.546875    0.515625    0.484375    0.453125    0.421875    
0.984375    0.953125    0.921875    0.890625    0.859375    
0.828125    0.796875    0.765625    0.734375    0.703125    
0.671875    0.640625    0.609375    0.578125    0.546875    
0.515625    0.484375    0.453125    0.421875    0.984375    
0.953125    0.921875    0.890625    0.859375    0.828125    
0.796875    0.765625    0.734375    0.703125    0.671875    
0.640625    0.609375    0.578125    0.546875    0.515625    
0.484375    0.453125    0.421875    0.984375    0.953125    
0.921875    0.890625    0.859375    0.828125    0.796875    
0.765625    0.734375    0.703125    0.671875    0.640625    
0.609375    0.578125    0.546875    0.515625    0.484375    
0.453125    0.984375    0.953125    0.921875    0.890625    
0.859375    0.828125    0.796875    0.765625    0.734375    
0.703125    0.671875    0.640625    0.609375    0.578125    
0.546875    0.515625    0.484375    0.453125    0.984375    
0.953125    0.921875    0.890625    0.859375    0.828125    
0.796875    0.765625    0.734375    0.703125    0.671875    
0.640625    0.609375    0.578125    0.546875    0.515625    
0.484375    0.453125    0.984375    0.953125    0.921875    
0.890625    0.859375    0.828125    0.796875    0.765625    
0.734375    0.703125    0.671875    0.640625    0.609375    
0.578125    0.546875    0.515625    0.484375    0.453125    
0.984375    0.953125    0.921875    0.890625    0.859375    
0.828125    0.796875    0.765625    0.734375    0.703125    
0.671875    0.640625    0.609375    0.578125    0.546875    
0.515625    0.484375    0.453125    0.984375    0.953125    
0.921875    0.890625    0.859375    0.828125    0.796875    
0.765625    0.734375    0.703125    0.671875    0.640625    
0.609375    0.578125    0.546875    0.515625    0.984375    
0.953125    0.921875    0.890625    0.859375    0.828125    
0.796875    0.765625    0.734375    0.703125    0.671875    
0.640625    0.609375    0.578125    0.546875    0.515625    
0.984375    0.953125    0.921875    0.890625    0.859375    
0.828125    0.796875    0.765625    0.734375    0.703125    
0.671875    0.640625    0.609375    0.578125    0.546875    
0.515625    0.984375    0.953125    0.921875    0.890625    
0.859375    0.828125    0.796875    0.765625    0.734375    
0.703125    0.671875    0.640625    0.609375    0.578125    
0.546875    0.484375    0.515625    0.484375    0.984375    
0.953125    0.921875    0.890625    0.859375    0.828125    
0.796875    0.765625    0.734375    0.703125    0.671875    
0.640625    0.609375    0.578125    0.546875    0.515625    
0.484375    0.984375    0.953125    0.921875    0.890625    
0.859375    0.828125    0.796875    0.765625    0.734375    
0.703125    0.671875    0.640625    0.609375    0.578125    
0.546875    0.515625    0.484375    0.984375    0.953125    
0.921875    0.890625    0.859375    0.828125    0.796875    
0.765625    0.734375    0.703125    0.671875    0.640625    
0.609375    0.578125    0.546875    0.515625    0.984375    
0.953125    0.921875    0.890625    0.859375    0.828125    
0.796875    0.765625    0.734375    0.703125    0.671875    
0.640625    0.609375    0.578125    0.984375    0.953125    
0.921875    0.890625    0.859375    0.828125    0.796875    
0.765625    0.734375    0.703125    0.671875    0.640625    
0.609375    0.578125    0.984375    0.953125    0.921875    
0.890625    0.859375    0.828125    0.796875    0.765625    
0.734375    0.703125    0.671875    0.640625    0.609375    
0.578125    0.984375    0.953125    0.921875    0.890625    
0.859375    0.828125    0.796875    0.765625    0.734375    
0.703125    0.671875    0.640625    0.609375    0.578125    
0.984375    0.953125    0.921875    0.890625    0.859375    
0.828125    0.796875    0.765625    0.734375    0.703125    
0.671875    0.640625    0.609375    0.578125    0.984375    
0.953125    0.921875    0.890625    0.859375    0.828125    
0.796875    0.765625    0.734375    0.703125    0.671875    
0.640625    0.609375    0.578125    0.984375    0.953125    
0.921875    0.890625    0.859375    0.828125    0.796875    
0.765625    0.734375    0.703125    0.671875    0.640625    
0.609375    0.578125    0.984375    0.953125    0.921875    
0.890625    0.859375    0.828125    0.796875    0.765625    