Title = " tecplot file for 2D Cavity problem " 
variables = "x", "y", "z", "velX", "cellCentroidY" 
Zone T = "nmesh0" N = 86 E = 64 DATAPACKING = BLOCK, VARLOCATION = ([4-5]=CELLCENTERED),  ZONETYPE=FEQUADRILATERAL 
0.53125    0.53125    0.53125    0.53125    0.5    
0.5    0.5    0.5    0.5    0.46875    
0.46875    0.46875    0.46875    0.46875    0.46875    
0.46875    0.4375    0.4375    0.4375    0.4375    
0.4375    0.4375    0.4375    0.4375    0.40625    
0.40625    0.40625    0.40625    0.40625    0.40625    
0.40625    0.40625    0.40625    0.375    0.375    
0.375    0.375    0.375    0.375    0.375    
0.375    0.375    0.375    0.34375    0.34375    
0.34375    0.34375    0.34375    0.34375    0.34375    
0.34375    0.34375    0.3125    0.3125    0.3125    
0.3125    0.3125    0.3125    0.3125    0.3125    
0.3125    0.3125    0.28125    0.28125    0.28125    
0.28125    0.28125    0.28125    0.28125    0.28125    
0.28125    0.28125    0.25    0.25    0.25    
0.25    0.25    0.25    0.25    0.25    
0.21875    0.21875    0.21875    0.21875    0.21875    
0.21875    
0.75    0.71875    0.6875    0.65625    0.75    
0.71875    0.6875    0.65625    0.625    0.75    
0.71875    0.6875    0.65625    0.625    0.59375    
0.5625    0.75    0.71875    0.6875    0.65625    
0.625    0.59375    0.5625    0.53125    0.75    
0.71875    0.6875    0.65625    0.625    0.59375    
0.5625    0.53125    0.5    0.75    0.78125    
0.71875    0.6875    0.65625    0.625    0.59375    
0.5625    0.53125    0.5    0.78125    0.75    
0.71875    0.6875    0.65625    0.625    0.59375    
0.5625    0.53125    0.78125    0.8125    0.75    
0.71875    0.6875    0.65625    0.625    0.59375    
0.5625    0.53125    0.8125    0.78125    0.75    
0.71875    0.6875    0.65625    0.625    0.59375    
0.5625    0.53125    0.78125    0.75    0.71875    
0.6875    0.65625    0.625    0.59375    0.5625    
0.71875    0.6875    0.65625    0.625    0.59375    
0.5625    
0.0    0.0    0.0    0.0    0.0    
0.0    0.0    0.0    0.0    0.0    
0.0    0.0    0.0    0.0    0.0    
0.0    0.0    0.0    0.0    0.0    
0.0    0.0    0.0    0.0    0.0    
0.0    0.0    0.0    0.0    0.0    
0.0    0.0    0.0    0.0    0.0    
0.0    0.0    0.0    0.0    0.0    
0.0    0.0    0.0    0.0    0.0    
0.0    0.0    0.0    0.0    0.0    
0.0    0.0    0.0    0.0    0.0    
0.0    0.0    0.0    0.0    0.0    
0.0    0.0    0.0    0.0    0.0    
0.0    0.0    0.0    0.0    0.0    
0.0    0.0    0.0    0.0    0.0    
0.0    0.0    0.0    0.0    0.0    
0.0    0.0    0.0    0.0    0.0    
0.0    
206.534304331    188.636501391    206.534304255    171.945190802    188.636501273    
171.945190746    205.323028625    187.430008609    156.434673636    170.764397131    
155.295703035    202.87459198    184.996107343    168.386686106    153.00596948    
127.753263182    125.700921035    199.136954743    181.293142602    164.780270448    
138.798992405    149.542496319    135.511307346    113.640880366    122.610547973    
110.760243601    194.031550811    176.259237813    159.898756753    144.872437967    
131.093192627    118.469719872    99.8794004675    106.910145435    213.276826248    
206.696819593    187.453184389    169.813501073    153.683080755    138.955306152    
125.519305296    113.264993433    102.086171101    198.441087589    179.270866033    
161.858501321    146.064759019    131.746400574    118.763728946    106.984777439    
96.2872840385    219.492099328    188.304565359    169.330690834    152.284879131    
136.971053416    123.201808149    110.804432449    99.6231033007    140.979270914    
126.332767347    113.285346141    101.629089367    91.1843070615    
0.734375    0.703125    0.734375    0.671875    0.703125    
0.671875    0.734375    0.703125    0.640625    0.671875    
0.640625    0.734375    0.703125    0.671875    0.640625    
0.578125    0.578125    0.734375    0.703125    0.671875    
0.609375    0.640625    0.609375    0.546875    0.578125    
0.546875    0.734375    0.703125    0.671875    0.640625    
0.609375    0.578125    0.515625    0.546875    0.765625    
0.765625    0.734375    0.703125    0.671875    0.640625    
0.609375    0.578125    0.546875    0.765625    0.734375    
0.703125    0.671875    0.640625    0.609375    0.578125    
0.546875    0.796875    0.765625    0.734375    0.703125    
0.671875    0.640625    0.609375    0.578125    0.703125    
0.671875    0.640625    0.609375    0.578125    
6     2     1     5     
2     6     7     3     
6     5     10     11     
3     7     8     4     
7     6     11     12     
8     7     12     13     
11     10     17     18     
12     11     18     19     
8     13     14     9     
13     12     19     20     
14     13     20     21     
18     17     25     26     
19     18     26     27     
20     19     27     28     
21     20     28     29     
22     23     16     15     
23     22     30     31     
26     25     34     36     
27     26     36     37     
28     27     37     38     
21     29     30     22     
29     28     38     39     
30     29     39     40     
23     31     32     24     
31     30     40     41     
32     31     41     42     
36     34     45     46     
37     36     46     47     
38     37     47     48     
39     38     48     49     
40     39     49     50     
41     40     50     51     
32     42     43     33     
42     41     51     52     
45     34     35     44     
45     44     53     55     
46     45     55     56     
47     46     56     57     
48     47     57     58     
49     48     58     59     
50     49     59     60     
51     50     60     61     
52     51     61     62     
55     53     64     65     
56     55     65     66     
57     56     66     67     
58     57     67     68     
59     58     68     69     
60     59     69     70     
61     60     70     71     
62     61     71     72     
64     53     54     63     
65     64     73     74     
66     65     74     75     
67     66     75     76     
68     67     76     77     
69     68     77     78     
70     69     78     79     
71     70     79     80     
76     75     81     82     
77     76     82     83     
78     77     83     84     
79     78     84     85     
80     79     85     86     

