Title = " tecplot file for 2D Cavity problem " 
variables = "x", "y", "z", "velX", "cellCentroidY" 
Zone T = "nmesh0" N = 90 E = 64 DATAPACKING = BLOCK, VARLOCATION = ([4-5]=CELLCENTERED),  ZONETYPE=FEQUADRILATERAL 
0.6875    0.6875    0.6875    0.6875    0.65625    
0.65625    0.65625    0.65625    0.625    0.625    
0.625    0.625    0.625    0.625    0.625    
0.625    0.625    0.625    0.625    0.625    
0.625    0.625    0.625    0.59375    0.59375    
0.59375    0.59375    0.59375    0.59375    0.59375    
0.59375    0.59375    0.59375    0.59375    0.59375    
0.59375    0.59375    0.59375    0.5625    0.5625    
0.5625    0.5625    0.5625    0.5625    0.5625    
0.5625    0.5625    0.5625    0.5625    0.5625    
0.5625    0.5625    0.5625    0.53125    0.53125    
0.53125    0.53125    0.53125    0.53125    0.53125    
0.53125    0.53125    0.53125    0.53125    0.53125    
0.5    0.5    0.5    0.5    0.5    
0.5    0.5    0.5    0.46875    0.46875    
0.46875    0.46875    0.46875    0.46875    0.46875    
0.4375    0.4375    0.4375    0.4375    0.4375    
0.4375    0.4375    0.40625    0.40625    0.40625    

0.875    0.84375    0.8125    0.78125    0.875    
0.84375    0.8125    0.78125    0.875    0.84375    
0.8125    0.78125    0.75    0.71875    0.6875    
0.65625    0.625    0.59375    0.5625    0.53125    
0.5    0.46875    0.4375    0.875    0.84375    
0.8125    0.78125    0.75    0.71875    0.6875    
0.65625    0.625    0.59375    0.5625    0.53125    
0.5    0.46875    0.4375    0.875    0.84375    
0.8125    0.78125    0.75    0.71875    0.6875    
0.65625    0.625    0.59375    0.5625    0.53125    
0.5    0.46875    0.4375    0.84375    0.8125    
0.78125    0.6875    0.65625    0.625    0.59375    
0.5625    0.53125    0.5    0.46875    0.4375    
0.65625    0.625    0.59375    0.5625    0.53125    
0.5    0.46875    0.4375    0.625    0.59375    
0.5625    0.53125    0.5    0.46875    0.4375    
0.625    0.59375    0.5625    0.53125    0.5    
0.46875    0.4375    0.53125    0.5    0.46875    

0.0    0.0    0.0    0.0    0.0    
0.0    0.0    0.0    0.0    0.0    
0.0    0.0    0.0    0.0    0.0    
0.0    0.0    0.0    0.0    0.0    
0.0    0.0    0.0    0.0    0.0    
0.0    0.0    0.0    0.0    0.0    
0.0    0.0    0.0    0.0    0.0    
0.0    0.0    0.0    0.0    0.0    
0.0    0.0    0.0    0.0    0.0    
0.0    0.0    0.0    0.0    0.0    
0.0    0.0    0.0    0.0    0.0    
0.0    0.0    0.0    0.0    0.0    
0.0    0.0    0.0    0.0    0.0    
0.0    0.0    0.0    0.0    0.0    
0.0    0.0    0.0    0.0    0.0    
0.0    0.0    0.0    0.0    0.0    
0.0    0.0    0.0    0.0    0.0    
0.0    0.0    0.0    0.0    0.0    

274.562804584    250.24539967    280.005695042    227.616179816    256.290522407    
234.030401005    284.107186469    260.880593867    238.938075437    287.04501503    
264.186591138    218.348533425    242.492773412    199.136954769    222.042277203    
181.29314265    202.874592133    164.780270429    184.996107522    149.54249616    
168.386686143    135.511307033    153.005969294    122.610547547    138.798991994    
110.760243063    125.700920509    99.8793998937    113.640879768    89.8879778287    
102.544931959    80.7082174082    92.3383136559    82.9470540576    266.327982191    
244.804149864    170.764397237    155.295702823    140.977771076    127.753262654    
115.557423463    104.321134455    93.9732907133    84.442591302    156.434673598    
142.063126834    128.776935563    116.514416969    105.208891674    94.7911234332    
85.1911877801    142.063126978    128.77693579    116.514417163    105.208891824    
94.7911235483    85.1911878666    140.977771493    115.557423995    104.321134894    
93.9732910526    84.4425915715    102.544932574    92.338314175    
0.859375    0.828125    0.859375    0.796875    0.828125    
0.796875    0.859375    0.828125    0.796875    0.859375    
0.828125    0.765625    0.796875    0.734375    0.765625    
0.703125    0.734375    0.671875    0.703125    0.640625    
0.671875    0.609375    0.640625    0.578125    0.609375    
0.546875    0.578125    0.515625    0.546875    0.484375    
0.515625    0.453125    0.484375    0.453125    0.828125    
0.796875    0.671875    0.640625    0.609375    0.578125    
0.546875    0.515625    0.484375    0.453125    0.640625    
0.609375    0.578125    0.546875    0.515625    0.484375    
0.453125    0.609375    0.578125    0.546875    0.515625    
0.484375    0.453125    0.609375    0.546875    0.515625    
0.484375    0.453125    0.515625    0.484375    
6     2     1     5     
2     6     7     3     
6     5     9     10     
3     7     8     4     
7     6     10     11     
8     7     11     12     
10     9     24     25     
11     10     25     26     
12     11     26     27     
25     24     39     40     
26     25     40     41     
12     27     28     13     
27     26     41     42     
13     28     29     14     
28     27     42     43     
14     29     30     15     
29     28     43     44     
15     30     31     16     
30     29     44     45     
16     31     32     17     
31     30     45     46     
17     32     33     18     
32     31     46     47     
18     33     34     19     
33     32     47     48     
19     34     35     20     
34     33     48     49     
20     35     36     21     
35     34     49     50     
21     36     37     22     
36     35     50     51     
22     37     38     23     
37     36     51     52     
38     37     52     53     
41     40     54     55     
42     41     55     56     
46     45     57     58     
47     46     58     59     
48     47     59     60     
49     48     60     61     
50     49     61     62     
51     50     62     63     
52     51     63     64     
53     52     64     65     
59     58     66     67     
60     59     67     68     
61     60     68     69     
62     61     69     70     
63     62     70     71     
64     63     71     72     
65     64     72     73     
68     67     74     75     
69     68     75     76     
70     69     76     77     
71     70     77     78     
72     71     78     79     
73     72     79     80     
75     74     81     82     
77     76     83     84     
78     77     84     85     
79     78     85     86     
80     79     86     87     
85     84     88     89     
86     85     89     90     

