Title = " tecplot file for 2D Cavity problem " 
variables = "x", "y", "z", "velX", "cellCentroidY" 
Zone T = "nmesh0" N = 81 E = 64 DATAPACKING = BLOCK, VARLOCATION = ([4-5]=CELLCENTERED), ZONETYPE=FEQUADRILATERAL
0.96875    1.0    0.96875    1.0    0.96875    
1.0    0.96875    1.0    0.96875    1.0    
0.96875    1.0    0.96875    1.0    0.96875    
1.0    0.96875    1.0    0.9375    0.9375    
0.9375    0.9375    0.9375    0.9375    0.9375    
0.9375    0.9375    0.90625    0.90625    0.90625    
0.90625    0.90625    0.90625    0.90625    0.90625    
0.90625    0.875    0.875    0.875    0.875    
0.875    0.875    0.875    0.875    0.875    
0.84375    0.84375    0.84375    0.84375    0.84375    
0.84375    0.84375    0.84375    0.84375    0.8125    
0.8125    0.8125    0.8125    0.8125    0.8125    
0.8125    0.8125    0.8125    0.78125    0.78125    
0.78125    0.78125    0.78125    0.78125    0.78125    
0.78125    0.78125    0.75    0.75    0.75    
0.75    0.75    0.75    0.75    0.75    
0.75    
0.5    0.5    0.46875    0.46875    0.4375    
0.4375    0.40625    0.40625    0.375    0.375    
0.34375    0.34375    0.3125    0.3125    0.28125    
0.28125    0.25    0.25    0.5    0.46875    
0.4375    0.40625    0.375    0.34375    0.3125    
0.28125    0.25    0.5    0.46875    0.4375    
0.40625    0.375    0.34375    0.3125    0.28125    
0.25    0.5    0.46875    0.4375    0.40625    
0.375    0.34375    0.3125    0.28125    0.25    
0.5    0.46875    0.4375    0.40625    0.375    
0.34375    0.3125    0.28125    0.25    0.5    
0.46875    0.4375    0.40625    0.375    0.34375    
0.3125    0.28125    0.25    0.5    0.46875    
0.4375    0.40625    0.375    0.34375    0.3125    
0.28125    0.25    0.5    0.46875    0.4375    
0.40625    0.375    0.34375    0.3125    0.28125    
0.25    
0.0    0.0    0.0    0.0    0.0    
0.0    0.0    0.0    0.0    0.0    
0.0    0.0    0.0    0.0    0.0    
0.0    0.0    0.0    0.0    0.0    
0.0    0.0    0.0    0.0    0.0    
0.0    0.0    0.0    0.0    0.0    
0.0    0.0    0.0    0.0    0.0    
0.0    0.0    0.0    0.0    0.0    
0.0    0.0    0.0    0.0    0.0    
0.0    0.0    0.0    0.0    0.0    
0.0    0.0    0.0    0.0    0.0    
0.0    0.0    0.0    0.0    0.0    
0.0    0.0    0.0    0.0    0.0    
0.0    0.0    0.0    0.0    0.0    
0.0    0.0    0.0    0.0    0.0    
0.0    0.0    0.0    0.0    0.0    
0.0    
4.92853695752    4.38699133037    3.9003462652    3.46052509572    3.06083309532    
2.69562788218    2.36007887752    2.04998862988    14.7207916354    13.1060734352    
11.6542149117    10.341446119    9.14801249874    8.05722743801    7.05477787548    
6.12820653995    24.3210855515    21.6622958596    19.2689938177    17.1030319705    
15.1325433429    13.3304914954    11.6735986466    10.1415404513    33.6094700828    
29.9530305993    26.6564325433    23.6691446025    20.9486374057    18.4585965522    
16.167584763    14.0480255293    42.4770586862    37.8839238861    33.7345611412    
29.9684764895    26.534265122    23.3876725407    20.4901183212    17.8075577736    
50.8287152451    45.371045057    40.4294116576    35.9359350891    31.8322740464    
28.0677101612    24.5976582027    21.3824953243    58.5844312074    52.3421293867    
46.6761053274    41.5135781597    36.7911858052    32.4532358467    28.450308998    
24.7381355051    65.6794673609    58.7369358616    52.4193021117    46.6510864113    
41.3656551579    36.5037384122    32.0122064284    27.8430557077    
0.484375    0.453125    0.421875    0.390625    0.359375    
0.328125    0.296875    0.265625    0.484375    0.453125    
0.421875    0.390625    0.359375    0.328125    0.296875    
0.265625    0.484375    0.453125    0.421875    0.390625    
0.359375    0.328125    0.296875    0.265625    0.484375    
0.453125    0.421875    0.390625    0.359375    0.328125    
0.296875    0.265625    0.484375    0.453125    0.421875    
0.390625    0.359375    0.328125    0.296875    0.265625    
0.484375    0.453125    0.421875    0.390625    0.359375    
0.328125    0.296875    0.265625    0.484375    0.453125    
0.421875    0.390625    0.359375    0.328125    0.296875    
0.265625    0.484375    0.453125    0.421875    0.390625    
0.359375    0.328125    0.296875    0.265625    
3     4     2     1     
4     3     5     6     
6     5     7     8     
8     7     9     10     
10     9     11     12     
12     11     13     14     
14     13     15     16     
16     15     17     18     
3     1     19     20     
5     3     20     21     
7     5     21     22     
9     7     22     23     
11     9     23     24     
13     11     24     25     
15     13     25     26     
17     15     26     27     
20     19     28     29     
21     20     29     30     
22     21     30     31     
23     22     31     32     
24     23     32     33     
25     24     33     34     
26     25     34     35     
27     26     35     36     
29     28     37     38     
30     29     38     39     
31     30     39     40     
32     31     40     41     
33     32     41     42     
34     33     42     43     
35     34     43     44     
36     35     44     45     
38     37     46     47     
39     38     47     48     
40     39     48     49     
41     40     49     50     
42     41     50     51     
43     42     51     52     
44     43     52     53     
45     44     53     54     
47     46     55     56     
48     47     56     57     
49     48     57     58     
50     49     58     59     
51     50     59     60     
52     51     60     61     
53     52     61     62     
54     53     62     63     
56     55     64     65     
57     56     65     66     
58     57     66     67     
59     58     67     68     
60     59     68     69     
61     60     69     70     
62     61     70     71     
63     62     71     72     
65     64     73     74     
66     65     74     75     
67     66     75     76     
68     67     76     77     
69     68     77     78     
70     69     78     79     
71     70     79     80     
72     71     80     81     

