Title = " tecplot file for 2D Cavity problem " 
variables = "x", "y", "z", "velX", "cellCentroidY" 
Zone T = "nmesh0" N = 81 E = 64 DATAPACKING = BLOCK, VARLOCATION = ([4-5]=CELLCENTERED), ZONETYPE=FEQUADRILATERAL
0.5    0.5    0.5    0.5    0.5    
0.5    0.5    0.5    0.5    0.46875    
0.46875    0.46875    0.46875    0.46875    0.46875    
0.46875    0.46875    0.46875    0.4375    0.4375    
0.4375    0.4375    0.4375    0.4375    0.4375    
0.4375    0.4375    0.40625    0.40625    0.40625    
0.40625    0.40625    0.40625    0.40625    0.40625    
0.40625    0.375    0.375    0.375    0.375    
0.375    0.375    0.375    0.375    0.375    
0.34375    0.34375    0.34375    0.34375    0.34375    
0.34375    0.34375    0.34375    0.34375    0.3125    
0.3125    0.3125    0.3125    0.3125    0.3125    
0.3125    0.3125    0.3125    0.28125    0.28125    
0.28125    0.28125    0.28125    0.28125    0.28125    
0.28125    0.28125    0.25    0.25    0.25    
0.25    0.25    0.25    0.25    0.25    
0.25    
1.0    0.96875    0.9375    0.90625    0.875    
0.84375    0.8125    0.78125    0.75    0.96875    
1.0    0.9375    0.90625    0.875    0.84375    
0.8125    0.78125    0.75    0.96875    1.0    
0.9375    0.90625    0.875    0.84375    0.8125    
0.78125    0.75    0.96875    1.0    0.9375    
0.90625    0.875    0.84375    0.8125    0.78125    
0.75    0.96875    1.0    0.9375    0.90625    
0.875    0.84375    0.8125    0.78125    0.75    
0.96875    1.0    0.9375    0.90625    0.875    
0.84375    0.8125    0.78125    0.75    0.96875    
1.0    0.9375    0.90625    0.875    0.84375    
0.8125    0.78125    0.75    0.96875    1.0    
0.9375    0.90625    0.875    0.84375    0.8125    
0.78125    0.75    0.96875    1.0    0.9375    
0.90625    0.875    0.84375    0.8125    0.78125    
0.75    
0.0    0.0    0.0    0.0    0.0    
0.0    0.0    0.0    0.0    0.0    
0.0    0.0    0.0    0.0    0.0    
0.0    0.0    0.0    0.0    0.0    
0.0    0.0    0.0    0.0    0.0    
0.0    0.0    0.0    0.0    0.0    
0.0    0.0    0.0    0.0    0.0    
0.0    0.0    0.0    0.0    0.0    
0.0    0.0    0.0    0.0    0.0    
0.0    0.0    0.0    0.0    0.0    
0.0    0.0    0.0    0.0    0.0    
0.0    0.0    0.0    0.0    0.0    
0.0    0.0    0.0    0.0    0.0    
0.0    0.0    0.0    0.0    0.0    
0.0    0.0    0.0    0.0    0.0    
0.0    0.0    0.0    0.0    0.0    
0.0    
387.375774356    362.24888853    337.480582405    313.290286304    289.870491278    
267.380369113    245.942633911    225.64338276    387.254208889    361.890308807    
336.902572347    312.51978518    288.940818353    266.327982069    244.804149758    
224.453209665    387.004961271    361.15556544    335.719612969    310.945463682    
287.045014838    264.186590998    242.492773326    222.042277171    386.615032025    
360.007378709    333.8748504    308.497441732    284.107186314    260.880593752    
238.938075371    218.348533445    386.062820141    358.384066965    331.274968181    
305.062266521    280.005694922    256.290522315    234.030400951    213.276826267    
385.315001714    356.191100823    327.778688831    300.47096124    274.562804532    
250.245399628    227.616179846    206.696819604    384.321087605    353.286645777    
323.177725075    294.480085071    267.529162331    242.512091813    219.492099195    
198.441087649    383.00379053    349.456669604    317.165480612    286.742491635    
258.561667904    232.781706092    209.39903747    188.304565471    
0.984375    0.953125    0.921875    0.890625    0.859375    
0.828125    0.796875    0.765625    0.984375    0.953125    
0.921875    0.890625    0.859375    0.828125    0.796875    
0.765625    0.984375    0.953125    0.921875    0.890625    
0.859375    0.828125    0.796875    0.765625    0.984375    
0.953125    0.921875    0.890625    0.859375    0.828125    
0.796875    0.765625    0.984375    0.953125    0.921875    
0.890625    0.859375    0.828125    0.796875    0.765625    
0.984375    0.953125    0.921875    0.890625    0.859375    
0.828125    0.796875    0.765625    0.984375    0.953125    
0.921875    0.890625    0.859375    0.828125    0.796875    
0.765625    0.984375    0.953125    0.921875    0.890625    
0.859375    0.828125    0.796875    0.765625    
10     2     1     11     
2     10     12     3     
3     12     13     4     
4     13     14     5     
5     14     15     6     
6     15     16     7     
7     16     17     8     
8     17     18     9     
10     11     20     19     
12     10     19     21     
13     12     21     22     
14     13     22     23     
15     14     23     24     
16     15     24     25     
17     16     25     26     
18     17     26     27     
19     20     29     28     
21     19     28     30     
22     21     30     31     
23     22     31     32     
24     23     32     33     
25     24     33     34     
26     25     34     35     
27     26     35     36     
28     29     38     37     
30     28     37     39     
31     30     39     40     
32     31     40     41     
33     32     41     42     
34     33     42     43     
35     34     43     44     
36     35     44     45     
37     38     47     46     
39     37     46     48     
40     39     48     49     
41     40     49     50     
42     41     50     51     
43     42     51     52     
44     43     52     53     
45     44     53     54     
46     47     56     55     
48     46     55     57     
49     48     57     58     
50     49     58     59     
51     50     59     60     
52     51     60     61     
53     52     61     62     
54     53     62     63     
55     56     65     64     
57     55     64     66     
58     57     66     67     
59     58     67     68     
60     59     68     69     
61     60     69     70     
62     61     70     71     
63     62     71     72     
64     65     74     73     
66     64     73     75     
67     66     75     76     
68     67     76     77     
69     68     77     78     
70     69     78     79     
71     70     79     80     
72     71     80     81     

