Title = " tecplot file for 2D Cavity problem " 
variables = "x", "y", "z", "velX", "cellCentroidY" 
Zone T = "nmesh0" N = 81 E = 64 DATAPACKING = BLOCK, VARLOCATION = ([4-5]=CELLCENTERED), ZONETYPE=FEQUADRILATERAL
0.96875    1.0    0.96875    1.0    0.96875    
1.0    0.96875    1.0    0.96875    1.0    
0.96875    1.0    0.96875    1.0    0.96875    
1.0    0.96875    0.9375    0.9375    0.9375    
0.9375    0.9375    0.9375    0.9375    0.9375    
0.9375    0.90625    0.90625    0.90625    0.90625    
0.90625    0.90625    0.90625    0.90625    0.90625    
0.875    0.875    0.875    0.875    0.875    
0.875    0.875    0.875    0.875    0.84375    
0.84375    0.84375    0.84375    0.84375    0.84375    
0.84375    0.84375    0.84375    0.8125    0.8125    
0.8125    0.8125    0.8125    0.8125    0.8125    
0.8125    0.8125    0.78125    0.78125    0.78125    
0.78125    0.78125    0.78125    0.78125    0.78125    
0.78125    0.75    0.75    0.75    0.75    
0.75    0.75    0.75    0.75    0.75    
1.0    
0.25    0.25    0.21875    0.21875    0.1875    
0.1875    0.15625    0.15625    0.125    0.125    
0.09375    0.09375    0.0625    0.0625    0.03125    
0.03125    0.0    0.25    0.21875    0.1875    
0.15625    0.125    0.09375    0.0625    0.03125    
0.0    0.25    0.21875    0.1875    0.15625    
0.125    0.09375    0.0625    0.03125    0.0    
0.25    0.21875    0.1875    0.15625    0.125    
0.09375    0.0625    0.03125    0.0    0.25    
0.21875    0.1875    0.15625    0.125    0.09375    
0.0625    0.03125    0.0    0.25    0.21875    
0.1875    0.15625    0.125    0.09375    0.0625    
0.03125    0.0    0.25    0.21875    0.1875    
0.15625    0.125    0.09375    0.0625    0.03125    
0.0    0.25    0.21875    0.1875    0.15625    
0.125    0.09375    0.0625    0.03125    0.0    
0.0    
0.0    0.0    0.0    0.0    0.0    
0.0    0.0    0.0    0.0    0.0    
0.0    0.0    0.0    0.0    0.0    
0.0    0.0    0.0    0.0    0.0    
0.0    0.0    0.0    0.0    0.0    
0.0    0.0    0.0    0.0    0.0    
0.0    0.0    0.0    0.0    0.0    
0.0    0.0    0.0    0.0    0.0    
0.0    0.0    0.0    0.0    0.0    
0.0    0.0    0.0    0.0    0.0    
0.0    0.0    0.0    0.0    0.0    
0.0    0.0    0.0    0.0    0.0    
0.0    0.0    0.0    0.0    0.0    
0.0    0.0    0.0    0.0    0.0    
0.0    0.0    0.0    0.0    0.0    
0.0    0.0    0.0    0.0    0.0    
0.0    
1.76165773642    1.49178086142    1.23736518641    0.995665091936    0.764128698965    
0.540353028033    0.322045342425    0.106988833346    5.26651918288    4.45988138841    
3.6993799857    2.97683157451    2.28462537452    1.61559109837    0.962884850288    
0.319887657158    8.71633106573    7.38184551801    6.12344178748    4.9276558466    
3.78195012658    2.67450114055    1.59401530314    0.52956460235    12.075419075    
10.2277278064    8.48488580881    6.82839989818    5.24101814413    3.70644803338    
2.20911061867    0.733920050813    15.309591861    12.9687608018    10.7599737359    
8.66003979315    6.64727451695    4.70116222845    2.80205908617    0.930925032877    
18.3866297262    15.5777497602    12.9262085482    10.4045110204    7.98687789922    
5.64886727468    3.3670384629    1.11864602641    21.2766818872    18.0293999231    
14.9625996681    12.04491784    9.2468587808    6.5403905046    3.89858146219    
1.29526663571    23.9525622936    20.3005683072    16.8498723695    13.5657018884    
10.4152488742    7.36725449654    4.39163024274    1.45910568874    
0.234375    0.203125    0.171875    0.140625    0.109375    
0.078125    0.046875    0.015625    0.234375    0.203125    
0.171875    0.140625    0.109375    0.078125    0.046875    
0.015625    0.234375    0.203125    0.171875    0.140625    
0.109375    0.078125    0.046875    0.015625    0.234375    
0.203125    0.171875    0.140625    0.109375    0.078125    
0.046875    0.015625    0.234375    0.203125    0.171875    
0.140625    0.109375    0.078125    0.046875    0.015625    
0.234375    0.203125    0.171875    0.140625    0.109375    
0.078125    0.046875    0.015625    0.234375    0.203125    
0.171875    0.140625    0.109375    0.078125    0.046875    
0.015625    0.234375    0.203125    0.171875    0.140625    
0.109375    0.078125    0.046875    0.015625    
3     4     2     1     
4     3     5     6     
6     5     7     8     
8     7     9     10     
10     9     11     12     
12     11     13     14     
14     13     15     16     
16     15     17     81     
3     1     18     19     
5     3     19     20     
7     5     20     21     
9     7     21     22     
11     9     22     23     
13     11     23     24     
15     13     24     25     
17     15     25     26     
19     18     27     28     
20     19     28     29     
21     20     29     30     
22     21     30     31     
23     22     31     32     
24     23     32     33     
25     24     33     34     
26     25     34     35     
28     27     36     37     
29     28     37     38     
30     29     38     39     
31     30     39     40     
32     31     40     41     
33     32     41     42     
34     33     42     43     
35     34     43     44     
37     36     45     46     
38     37     46     47     
39     38     47     48     
40     39     48     49     
41     40     49     50     
42     41     50     51     
43     42     51     52     
44     43     52     53     
46     45     54     55     
47     46     55     56     
48     47     56     57     
49     48     57     58     
50     49     58     59     
51     50     59     60     
52     51     60     61     
53     52     61     62     
55     54     63     64     
56     55     64     65     
57     56     65     66     
58     57     66     67     
59     58     67     68     
60     59     68     69     
61     60     69     70     
62     61     70     71     
64     63     72     73     
65     64     73     74     
66     65     74     75     
67     66     75     76     
68     67     76     77     
69     68     77     78     
70     69     78     79     
71     70     79     80     

