Title = " tecplot file for 2D Cavity problem " 
variables = "x", "y", "z", "velX", "cellCentroidY" 
Zone T = "nmesh0" N = 81 E = 64 DATAPACKING = BLOCK, VARLOCATION = ([4-5]=CELLCENTERED), ZONETYPE=FEQUADRILATERAL
0.75    0.75    0.75    0.75    0.75    
0.75    0.75    0.75    0.75    0.71875    
0.71875    0.71875    0.71875    0.71875    0.71875    
0.71875    0.71875    0.71875    0.6875    0.6875    
0.6875    0.6875    0.6875    0.6875    0.6875    
0.6875    0.6875    0.65625    0.65625    0.65625    
0.65625    0.65625    0.65625    0.65625    0.65625    
0.65625    0.625    0.625    0.625    0.625    
0.625    0.625    0.625    0.625    0.625    
0.59375    0.59375    0.59375    0.59375    0.59375    
0.59375    0.59375    0.59375    0.59375    0.5625    
0.5625    0.5625    0.5625    0.5625    0.5625    
0.5625    0.5625    0.5625    0.53125    0.53125    
0.53125    0.53125    0.53125    0.53125    0.53125    
0.53125    0.53125    0.5    0.5    0.5    
0.5    0.5    0.5    0.5    0.5    
0.5    
0.25    0.21875    0.1875    0.15625    0.125    
0.09375    0.0625    0.03125    0.0    0.25    
0.21875    0.1875    0.15625    0.125    0.09375    
0.0625    0.03125    0.0    0.25    0.21875    
0.1875    0.15625    0.125    0.09375    0.0625    
0.03125    0.0    0.25    0.21875    0.1875    
0.15625    0.125    0.09375    0.0625    0.03125    
0.0    0.25    0.21875    0.1875    0.15625    
0.125    0.09375    0.0625    0.03125    0.0    
0.25    0.21875    0.1875    0.15625    0.125    
0.09375    0.0625    0.03125    0.0    0.25    
0.21875    0.1875    0.15625    0.125    0.09375    
0.0625    0.03125    0.0    0.25    0.21875    
0.1875    0.15625    0.125    0.09375    0.0625    
0.03125    0.0    0.25    0.21875    0.1875    
0.15625    0.125    0.09375    0.0625    0.03125    
0.0    
0.0    0.0    0.0    0.0    0.0    
0.0    0.0    0.0    0.0    0.0    
0.0    0.0    0.0    0.0    0.0    
0.0    0.0    0.0    0.0    0.0    
0.0    0.0    0.0    0.0    0.0    
0.0    0.0    0.0    0.0    0.0    
0.0    0.0    0.0    0.0    0.0    
0.0    0.0    0.0    0.0    0.0    
0.0    0.0    0.0    0.0    0.0    
0.0    0.0    0.0    0.0    0.0    
0.0    0.0    0.0    0.0    0.0    
0.0    0.0    0.0    0.0    0.0    
0.0    0.0    0.0    0.0    0.0    
0.0    0.0    0.0    0.0    0.0    
0.0    0.0    0.0    0.0    0.0    
0.0    0.0    0.0    0.0    0.0    
0.0    
26.3899429249    22.3704384277    28.5674527122    18.5706194508    24.220622951    
14.952768327    20.1093986569    11.481180207    16.1935717324    8.12174826484    
12.4349553569    4.84157925356    8.79697910482    1.60863153661    5.24430698051    
1.74247273972    30.4666932651    25.8352018974    21.4527804464    17.2771645484    
13.2680903536    9.38690580599    5.59619682132    1.85942518014    32.0721919808    
27.2007108565    22.589356674    18.1942156495    13.9733356983    9.88635694975    
5.89414932732    1.9584563408    33.3713112385    28.3060927996    23.5097197341    
18.9370056653    14.5446798353    10.2910369742    6.13558720553    2.03870719861    
34.354135021    29.142629292    24.2064237882    19.4994074304    14.9773409996    
10.5975239132    6.3184553326    2.09949244864    35.0133521684    29.7038654785    
24.673938687    19.8768592577    15.2677528161    10.8032623548    6.4412177731    
2.14029971566    35.3441531056    29.9855416817    24.9086062152    20.0663380887    
15.4135486508    10.9065549247    6.50285370292    2.16078836074    
0.234375    0.203125    0.234375    0.171875    0.203125    
0.140625    0.171875    0.109375    0.140625    0.078125    
0.109375    0.046875    0.078125    0.015625    0.046875    
0.015625    0.234375    0.203125    0.171875    0.140625    
0.109375    0.078125    0.046875    0.015625    0.234375    
0.203125    0.171875    0.140625    0.109375    0.078125    
0.046875    0.015625    0.234375    0.203125    0.171875    
0.140625    0.109375    0.078125    0.046875    0.015625    
0.234375    0.203125    0.171875    0.140625    0.109375    
0.078125    0.046875    0.015625    0.234375    0.203125    
0.171875    0.140625    0.109375    0.078125    0.046875    
0.015625    0.234375    0.203125    0.171875    0.140625    
0.109375    0.078125    0.046875    0.015625    
11     2     1     10     
2     11     12     3     
11     10     19     20     
3     12     13     4     
12     11     20     21     
4     13     14     5     
13     12     21     22     
5     14     15     6     
14     13     22     23     
6     15     16     7     
15     14     23     24     
7     16     17     8     
16     15     24     25     
8     17     18     9     
17     16     25     26     
18     17     26     27     
20     19     28     29     
21     20     29     30     
22     21     30     31     
23     22     31     32     
24     23     32     33     
25     24     33     34     
26     25     34     35     
27     26     35     36     
29     28     37     38     
30     29     38     39     
31     30     39     40     
32     31     40     41     
33     32     41     42     
34     33     42     43     
35     34     43     44     
36     35     44     45     
38     37     46     47     
39     38     47     48     
40     39     48     49     
41     40     49     50     
42     41     50     51     
43     42     51     52     
44     43     52     53     
45     44     53     54     
47     46     55     56     
48     47     56     57     
49     48     57     58     
50     49     58     59     
51     50     59     60     
52     51     60     61     
53     52     61     62     
54     53     62     63     
56     55     64     65     
57     56     65     66     
58     57     66     67     
59     58     67     68     
60     59     68     69     
61     60     69     70     
62     61     70     71     
63     62     71     72     
65     64     73     74     
66     65     74     75     
67     66     75     76     
68     67     76     77     
69     68     77     78     
70     69     78     79     
71     70     79     80     
72     71     80     81     

