Title = " tecplot file for 2D Cavity problem " 
variables = "x", "y", "z", "velX", "cellCentroidY" 
Zone T = "nmesh0" N = 81 E = 64 DATAPACKING = BLOCK, VARLOCATION = ([4-5]=CELLCENTERED), ZONETYPE=FEQUADRILATERAL
0.96875    1.0    0.96875    1.0    0.96875    
1.0    0.96875    1.0    0.96875    1.0    
0.96875    1.0    0.96875    1.0    0.96875    
1.0    0.96875    0.9375    0.9375    0.9375    
0.9375    0.9375    0.9375    0.9375    0.9375    
0.9375    0.90625    0.90625    0.90625    0.90625    
0.90625    0.90625    0.90625    0.90625    0.90625    
0.875    0.875    0.875    0.875    0.875    
0.875    0.875    0.875    0.875    0.84375    
0.84375    0.84375    0.84375    0.84375    0.84375    
0.84375    0.84375    0.84375    0.8125    0.8125    
0.8125    0.8125    0.8125    0.8125    0.8125    
0.8125    0.8125    0.78125    0.78125    0.78125    
0.78125    0.78125    0.78125    0.78125    0.78125    
0.78125    0.75    0.75    0.75    0.75    
0.75    0.75    0.75    0.75    0.75    
1.0    
0.25    0.25    0.21875    0.21875    0.1875    
0.1875    0.15625    0.15625    0.125    0.125    
0.09375    0.09375    0.0625    0.0625    0.03125    
0.03125    0.0    0.25    0.21875    0.1875    
0.15625    0.125    0.09375    0.0625    0.03125    
0.0    0.25    0.21875    0.1875    0.15625    
0.125    0.09375    0.0625    0.03125    0.0    
0.25    0.21875    0.1875    0.15625    0.125    
0.09375    0.0625    0.03125    0.0    0.25    
0.21875    0.1875    0.15625    0.125    0.09375    
0.0625    0.03125    0.0    0.25    0.21875    
0.1875    0.15625    0.125    0.09375    0.0625    
0.03125    0.0    0.25    0.21875    0.1875    
0.15625    0.125    0.09375    0.0625    0.03125    
0.0    0.25    0.21875    0.1875    0.15625    
0.125    0.09375    0.0625    0.03125    0.0    
0.0    
0.0    0.0    0.0    0.0    0.0    
0.0    0.0    0.0    0.0    0.0    
0.0    0.0    0.0    0.0    0.0    
0.0    0.0    0.0    0.0    0.0    
0.0    0.0    0.0    0.0    0.0    
0.0    0.0    0.0    0.0    0.0    
0.0    0.0    0.0    0.0    0.0    
0.0    0.0    0.0    0.0    0.0    
0.0    0.0    0.0    0.0    0.0    
0.0    0.0    0.0    0.0    0.0    
0.0    0.0    0.0    0.0    0.0    
0.0    0.0    0.0    0.0    0.0    
0.0    0.0    0.0    0.0    0.0    
0.0    0.0    0.0    0.0    0.0    
0.0    0.0    0.0    0.0    0.0    
0.0    0.0    0.0    0.0    0.0    
0.0    
1.76165773011    1.4917808579    5.26651916576    1.23736518342    4.45988137291    
0.995665088716    3.6993799712    0.764128695633    2.97683156342    0.540353025047    
2.28462536448    0.322045339934    1.61559108919    0.106988832516    0.9628848436    
0.319887654734    8.71633102974    7.3818454869    6.12344176487    4.92765582744    
3.78195010894    2.67450112469    1.59401529108    0.529564598175    12.075419025    
10.2277277631    8.48488577289    6.82839986961    5.2410181182    3.70644800995    
2.20911060186    0.733920044825    15.3095917931    12.968760743    10.7599736919    
8.66003975598    6.64727448261    4.70116219773    2.80205906361    0.930925024972    
18.3866296463    15.5777496914    12.9262084926    10.4045109746    7.98687785689    
5.64886723668    3.3670384358    1.11864601661    21.2766817947    18.029399843    
14.9625996085    12.0449177873    9.24685873171    6.54039046049    3.89858143022    
1.29526662439    23.9525621985    20.3005682281    16.8498723066    13.5657018291    
10.415248821    7.36725444609    4.39163020916    1.45910567718    
0.234375    0.203125    0.234375    0.171875    0.203125    
0.140625    0.171875    0.109375    0.140625    0.078125    
0.109375    0.046875    0.078125    0.015625    0.046875    
0.015625    0.234375    0.203125    0.171875    0.140625    
0.109375    0.078125    0.046875    0.015625    0.234375    
0.203125    0.171875    0.140625    0.109375    0.078125    
0.046875    0.015625    0.234375    0.203125    0.171875    
0.140625    0.109375    0.078125    0.046875    0.015625    
0.234375    0.203125    0.171875    0.140625    0.109375    
0.078125    0.046875    0.015625    0.234375    0.203125    
0.171875    0.140625    0.109375    0.078125    0.046875    
0.015625    0.234375    0.203125    0.171875    0.140625    
0.109375    0.078125    0.046875    0.015625    
3     4     2     1     
4     3     5     6     
3     1     18     19     
6     5     7     8     
5     3     19     20     
8     7     9     10     
7     5     20     21     
10     9     11     12     
9     7     21     22     
12     11     13     14     
11     9     22     23     
14     13     15     16     
13     11     23     24     
16     15     17     81     
15     13     24     25     
17     15     25     26     
19     18     27     28     
20     19     28     29     
21     20     29     30     
22     21     30     31     
23     22     31     32     
24     23     32     33     
25     24     33     34     
26     25     34     35     
28     27     36     37     
29     28     37     38     
30     29     38     39     
31     30     39     40     
32     31     40     41     
33     32     41     42     
34     33     42     43     
35     34     43     44     
37     36     45     46     
38     37     46     47     
39     38     47     48     
40     39     48     49     
41     40     49     50     
42     41     50     51     
43     42     51     52     
44     43     52     53     
46     45     54     55     
47     46     55     56     
48     47     56     57     
49     48     57     58     
50     49     58     59     
51     50     59     60     
52     51     60     61     
53     52     61     62     
55     54     63     64     
56     55     64     65     
57     56     65     66     
58     57     66     67     
59     58     67     68     
60     59     68     69     
61     60     69     70     
62     61     70     71     
64     63     72     73     
65     64     73     74     
66     65     74     75     
67     66     75     76     
68     67     76     77     
69     68     77     78     
70     69     78     79     
71     70     79     80     

