Title = " tecplot file for 2D Cavity problem " 
variables = "x", "y", "z", "velX", "cellCentroidY" 
Zone T = "nmesh0" N = 83 E = 64 DATAPACKING = BLOCK, VARLOCATION = ([4-5]=CELLCENTERED),  ZONETYPE=FEQUADRILATERAL 
0.21875    0.21875    0.1875    0.1875    0.1875    
0.1875    0.1875    0.1875    0.1875    0.1875    
0.1875    0.1875    0.1875    0.15625    0.15625    
0.15625    0.15625    0.15625    0.15625    0.15625    
0.15625    0.15625    0.15625    0.15625    0.15625    
0.125    0.125    0.125    0.125    0.125    
0.125    0.125    0.125    0.125    0.125    
0.125    0.125    0.09375    0.09375    0.09375    
0.09375    0.09375    0.09375    0.09375    0.09375    
0.09375    0.09375    0.09375    0.09375    0.0625    
0.0625    0.0625    0.0625    0.0625    0.0625    
0.0625    0.0625    0.0625    0.0625    0.0625    
0.0625    0.03125    0.03125    0.03125    0.03125    
0.03125    0.03125    0.03125    0.03125    0.03125    
0.03125    0.03125    0.0    0.0    0.0    
0.0    0.0    0.0    0.0    0.0    
0.0    0.0    0.0    
0.5    0.46875    0.5    0.46875    0.4375    
0.40625    0.375    0.34375    0.3125    0.28125    
0.25    0.21875    0.1875    0.5    0.53125    
0.46875    0.4375    0.40625    0.375    0.34375    
0.3125    0.28125    0.25    0.21875    0.1875    
0.53125    0.5    0.46875    0.4375    0.40625    
0.375    0.34375    0.3125    0.28125    0.25    
0.21875    0.1875    0.53125    0.5    0.46875    
0.4375    0.40625    0.375    0.34375    0.3125    
0.28125    0.25    0.21875    0.1875    0.53125    
0.5    0.46875    0.4375    0.40625    0.375    
0.34375    0.3125    0.28125    0.25    0.21875    
0.1875    0.5    0.46875    0.4375    0.40625    
0.375    0.34375    0.3125    0.28125    0.25    
0.21875    0.1875    0.5    0.46875    0.4375    
0.40625    0.375    0.34375    0.3125    0.28125    
0.25    0.21875    0.1875    
0.0    0.0    0.0    0.0    0.0    
0.0    0.0    0.0    0.0    0.0    
0.0    0.0    0.0    0.0    0.0    
0.0    0.0    0.0    0.0    0.0    
0.0    0.0    0.0    0.0    0.0    
0.0    0.0    0.0    0.0    0.0    
0.0    0.0    0.0    0.0    0.0    
0.0    0.0    0.0    0.0    0.0    
0.0    0.0    0.0    0.0    0.0    
0.0    0.0    0.0    0.0    0.0    
0.0    0.0    0.0    0.0    0.0    
0.0    0.0    0.0    0.0    0.0    
0.0    0.0    0.0    0.0    0.0    
0.0    0.0    0.0    0.0    0.0    
0.0    0.0    0.0    0.0    0.0    
0.0    0.0    0.0    0.0    0.0    
0.0    0.0    0.0    
58.5844316898    50.8287157887    45.3710455699    42.4770591401    40.42941214    
37.8839243121    35.9359355195    33.7345615533    31.83227439    29.9684768519    
28.0677103741    26.534265413    24.5976582799    23.3876727408    21.3824952613    
20.4901184193    18.3866296083    17.8075577668    15.5777496688    15.3095918141    
12.9687607901    47.586125958    37.6867058585    33.6094704489    29.9530309293    
26.6564328509    23.6691448734    20.9486376226    18.458596703    16.1675848408    
14.0480255319    12.0754190547    10.2277278184    27.2917848917    24.3210858203    
21.6622960953    19.2689940388    17.1030321611    15.1325434948    13.3304916022    
11.6735987047    10.1415404615    8.71633105853    7.38184553136    14.7207918111    
13.1060735867    11.6542150435    10.3414462324    9.14801258948    8.05722750177    
7.05477791175    6.12820654828    5.26651918617    4.45988140355    4.92853701832    
4.38699138436    3.90034631251    3.4605251342    3.06083312546    2.69562790352    
2.36007889005    2.04998863516    1.76165773792    1.49178086938    
0.484375    0.484375    0.453125    0.484375    0.421875    
0.453125    0.390625    0.421875    0.359375    0.390625    
0.328125    0.359375    0.296875    0.328125    0.265625    
0.296875    0.234375    0.265625    0.203125    0.234375    
0.203125    0.515625    0.515625    0.484375    0.453125    
0.421875    0.390625    0.359375    0.328125    0.296875    
0.265625    0.234375    0.203125    0.515625    0.484375    
0.453125    0.421875    0.390625    0.359375    0.328125    
0.296875    0.265625    0.234375    0.203125    0.484375    
0.453125    0.421875    0.390625    0.359375    0.328125    
0.296875    0.265625    0.234375    0.203125    0.484375    
0.453125    0.421875    0.390625    0.359375    0.328125    
0.296875    0.265625    0.234375    0.203125    
3     4     2     1     
4     3     14     16     
4     16     17     5     
16     14     27     28     
5     17     18     6     
17     16     28     29     
6     18     19     7     
18     17     29     30     
7     19     20     8     
19     18     30     31     
8     20     21     9     
20     19     31     32     
9     21     22     10     
21     20     32     33     
10     22     23     11     
22     21     33     34     
11     23     24     12     
23     22     34     35     
12     24     25     13     
24     23     35     36     
25     24     36     37     
27     14     15     26     
27     26     38     39     
28     27     39     40     
29     28     40     41     
30     29     41     42     
31     30     42     43     
32     31     43     44     
33     32     44     45     
34     33     45     46     
35     34     46     47     
36     35     47     48     
37     36     48     49     
39     38     50     51     
40     39     51     52     
41     40     52     53     
42     41     53     54     
43     42     54     55     
44     43     55     56     
45     44     56     57     
46     45     57     58     
47     46     58     59     
48     47     59     60     
49     48     60     61     
52     51     62     63     
53     52     63     64     
54     53     64     65     
55     54     65     66     
56     55     66     67     
57     56     67     68     
58     57     68     69     
59     58     69     70     
60     59     70     71     
61     60     71     72     
63     62     73     74     
64     63     74     75     
65     64     75     76     
66     65     76     77     
67     66     77     78     
68     67     78     79     
69     68     79     80     
70     69     80     81     
71     70     81     82     
72     71     82     83     

