Title = " tecplot file for 2D Cavity problem " 
variables = "x", "y", "z", "velX", "cellCentroidY" 
Zone T = "nmesh0" N = 81 E = 64 DATAPACKING = BLOCK, VARLOCATION = ([4-5]=CELLCENTERED), ZONETYPE=FEQUADRILATERAL
0.25    0.25    0.25    0.25    0.25    
0.25    0.25    0.25    0.25    0.21875    
0.21875    0.21875    0.21875    0.21875    0.21875    
0.21875    0.21875    0.21875    0.1875    0.1875    
0.1875    0.1875    0.1875    0.1875    0.1875    
0.1875    0.1875    0.15625    0.15625    0.15625    
0.15625    0.15625    0.15625    0.15625    0.15625    
0.15625    0.125    0.125    0.125    0.125    
0.125    0.125    0.125    0.125    0.125    
0.09375    0.09375    0.09375    0.09375    0.09375    
0.09375    0.09375    0.09375    0.09375    0.0625    
0.0625    0.0625    0.0625    0.0625    0.0625    
0.0625    0.0625    0.0625    0.03125    0.03125    
0.03125    0.03125    0.03125    0.03125    0.03125    
0.03125    0.03125    0.0    0.0    0.0    
0.0    0.0    0.0    0.0    0.0    
0.0    
0.75    0.71875    0.6875    0.65625    0.625    
0.59375    0.5625    0.53125    0.5    0.75    
0.71875    0.6875    0.65625    0.625    0.59375    
0.5625    0.53125    0.5    0.75    0.71875    
0.6875    0.65625    0.625    0.59375    0.5625    
0.53125    0.5    0.75    0.71875    0.6875    
0.65625    0.625    0.59375    0.5625    0.53125    
0.5    0.75    0.71875    0.6875    0.65625    
0.625    0.59375    0.5625    0.53125    0.5    
0.75    0.71875    0.6875    0.65625    0.625    
0.59375    0.5625    0.53125    0.5    0.75    
0.71875    0.6875    0.65625    0.625    0.59375    
0.5625    0.53125    0.5    0.75    0.71875    
0.6875    0.65625    0.625    0.59375    0.5625    
0.53125    0.5    0.75    0.71875    0.6875    
0.65625    0.625    0.59375    0.5625    0.53125    
0.5    
0.0    0.0    0.0    0.0    0.0    
0.0    0.0    0.0    0.0    0.0    
0.0    0.0    0.0    0.0    0.0    
0.0    0.0    0.0    0.0    0.0    
0.0    0.0    0.0    0.0    0.0    
0.0    0.0    0.0    0.0    0.0    
0.0    0.0    0.0    0.0    0.0    
0.0    0.0    0.0    0.0    0.0    
0.0    0.0    0.0    0.0    0.0    
0.0    0.0    0.0    0.0    0.0    
0.0    0.0    0.0    0.0    0.0    
0.0    0.0    0.0    0.0    0.0    
0.0    0.0    0.0    0.0    0.0    
0.0    0.0    0.0    0.0    0.0    
0.0    0.0    0.0    0.0    0.0    
0.0    0.0    0.0    0.0    0.0    
0.0    
157.462452684    140.979270949    143.492403264    126.332767345    127.83698439    
113.285346094    114.095398722    101.62908926    101.977719464    91.1843068893    
91.2422714936    81.7965243229    81.6885106102    73.3330195165    73.1498746603    
65.4874130678    127.265191574    112.78086451    100.234123608    89.287861457    
79.6737665502    71.1775893032    63.627050543    56.8823262821    108.678016196    
95.7871584263    84.7723697337    75.2658361925    66.9873439353    59.7210294979    
53.2984119139    47.5861257626    87.7283105727    76.9173832285    67.8023606966    
60.0157696312    53.2887434888    47.4207728276    42.2594418401    37.6867057167    
64.5712363479    56.351703189    49.5039201835    43.7061381366    38.7310875519    
34.4138764744    30.6318768926    27.2917847979    39.5735480107    34.4142729747    
30.1554787053    26.5737751727    23.5155921014    20.8717686192    18.5624044513    
16.5274707368    13.3375904389    11.5763619808    10.1299464862    8.91789174367    
7.8857370585    6.99520144627    6.21850155263    5.53490186438    
0.734375    0.703125    0.734375    0.671875    0.703125    
0.640625    0.671875    0.609375    0.640625    0.578125    
0.609375    0.546875    0.578125    0.515625    0.546875    
0.515625    0.734375    0.703125    0.671875    0.640625    
0.609375    0.578125    0.546875    0.515625    0.734375    
0.703125    0.671875    0.640625    0.609375    0.578125    
0.546875    0.515625    0.734375    0.703125    0.671875    
0.640625    0.609375    0.578125    0.546875    0.515625    
0.734375    0.703125    0.671875    0.640625    0.609375    
0.578125    0.546875    0.515625    0.734375    0.703125    
0.671875    0.640625    0.609375    0.578125    0.546875    
0.515625    0.734375    0.703125    0.671875    0.640625    
0.609375    0.578125    0.546875    0.515625    
11     2     1     10     
2     11     12     3     
11     10     19     20     
3     12     13     4     
12     11     20     21     
4     13     14     5     
13     12     21     22     
5     14     15     6     
14     13     22     23     
6     15     16     7     
15     14     23     24     
7     16     17     8     
16     15     24     25     
8     17     18     9     
17     16     25     26     
18     17     26     27     
20     19     28     29     
21     20     29     30     
22     21     30     31     
23     22     31     32     
24     23     32     33     
25     24     33     34     
26     25     34     35     
27     26     35     36     
29     28     37     38     
30     29     38     39     
31     30     39     40     
32     31     40     41     
33     32     41     42     
34     33     42     43     
35     34     43     44     
36     35     44     45     
38     37     46     47     
39     38     47     48     
40     39     48     49     
41     40     49     50     
42     41     50     51     
43     42     51     52     
44     43     52     53     
45     44     53     54     
47     46     55     56     
48     47     56     57     
49     48     57     58     
50     49     58     59     
51     50     59     60     
52     51     60     61     
53     52     61     62     
54     53     62     63     
56     55     64     65     
57     56     65     66     
58     57     66     67     
59     58     67     68     
60     59     68     69     
61     60     69     70     
62     61     70     71     
63     62     71     72     
65     64     73     74     
66     65     74     75     
67     66     75     76     
68     67     76     77     
69     68     77     78     
70     69     78     79     
71     70     79     80     
72     71     80     81     

