Title = " tecplot file for 2D Cavity problem " 
variables = "x", "y", "z", "velX", "cellCentroidY" 
Zone T = "nmesh0" N = 84 E = 64 DATAPACKING = BLOCK, VARLOCATION = ([4-5]=CELLCENTERED),  ZONETYPE=FEQUADRILATERAL 
0.75    0.75    0.75    0.71875    0.71875    
0.71875    0.71875    0.71875    0.71875    0.71875    
0.6875    0.6875    0.6875    0.6875    0.6875    
0.6875    0.6875    0.6875    0.6875    0.6875    
0.6875    0.6875    0.65625    0.65625    0.65625    
0.65625    0.65625    0.65625    0.65625    0.65625    
0.65625    0.65625    0.65625    0.65625    0.625    
0.625    0.625    0.625    0.625    0.625    
0.625    0.625    0.625    0.625    0.625    
0.625    0.59375    0.59375    0.59375    0.59375    
0.59375    0.59375    0.59375    0.59375    0.59375    
0.59375    0.5625    0.5625    0.5625    0.5625    
0.5625    0.5625    0.5625    0.5625    0.5625    
0.5625    0.53125    0.53125    0.53125    0.53125    
0.53125    0.53125    0.53125    0.53125    0.53125    
0.53125    0.5    0.5    0.5    0.5    
0.5    0.5    0.5    0.5    
0.25    0.21875    0.1875    0.375    0.34375    
0.3125    0.28125    0.25    0.21875    0.1875    
0.5    0.46875    0.4375    0.40625    0.375    
0.34375    0.3125    0.28125    0.25    0.21875    
0.1875    0.15625    0.5    0.46875    0.4375    
0.40625    0.375    0.34375    0.3125    0.28125    
0.25    0.21875    0.1875    0.15625    0.5    
0.46875    0.4375    0.40625    0.375    0.34375    
0.3125    0.28125    0.25    0.21875    0.1875    
0.15625    0.4375    0.40625    0.375    0.34375    
0.3125    0.28125    0.25    0.21875    0.1875    
0.15625    0.4375    0.40625    0.375    0.34375    
0.3125    0.28125    0.25    0.21875    0.1875    
0.15625    0.4375    0.40625    0.375    0.34375    
0.3125    0.28125    0.25    0.21875    0.1875    
0.15625    0.4375    0.40625    0.375    0.34375    
0.3125    0.28125    0.25    0.21875    
0.0    0.0    0.0    0.0    0.0    
0.0    0.0    0.0    0.0    0.0    
0.0    0.0    0.0    0.0    0.0    
0.0    0.0    0.0    0.0    0.0    
0.0    0.0    0.0    0.0    0.0    
0.0    0.0    0.0    0.0    0.0    
0.0    0.0    0.0    0.0    0.0    
0.0    0.0    0.0    0.0    0.0    
0.0    0.0    0.0    0.0    0.0    
0.0    0.0    0.0    0.0    0.0    
0.0    0.0    0.0    0.0    0.0    
0.0    0.0    0.0    0.0    0.0    
0.0    0.0    0.0    0.0    0.0    
0.0    0.0    0.0    0.0    0.0    
0.0    0.0    0.0    0.0    0.0    
0.0    0.0    0.0    0.0    0.0    
0.0    0.0    0.0    0.0    
26.3899426466    22.3704381842    28.5674523374    24.2206226517    49.2111176416    
43.4633530736    52.422045094    38.1415085351    46.3169302689    33.1925512085    
40.6584076419    35.3919258903    30.4666927913    25.8352015202    82.5591353561    
74.0293539273    86.6259801534    66.2120420856    77.7323605933    59.0325581128    
69.5658905161    62.0536822758    55.1275742588    48.7239152035    42.7832658049    
37.2500518743    32.0721914203    21.4527802076    27.2007104053    22.5893563947    
72.2654769678    64.4887061516    57.3106544559    50.6678904582    44.5006884806    
38.7528243765    33.3713106071    28.3060922927    23.5097194129    74.299093626    
66.3250108505    58.9584469408    52.136303677    45.7987732706    39.8892465383    
34.3541343378    29.1426287491    24.2064234434    75.6588324923    67.5537966046    
60.0618187683    53.1201040231    46.6688543771    40.6512541633    35.0133514506    
29.703864926    24.6739383407    76.3398482834    68.1695242241    60.6149274926    
53.6134392575    47.1052860431    41.0335642777    35.3441523693    
0.234375    0.203125    0.234375    0.203125    0.359375    
0.328125    0.359375    0.296875    0.328125    0.265625    
0.296875    0.265625    0.234375    0.203125    0.484375    
0.453125    0.484375    0.421875    0.453125    0.390625    
0.421875    0.390625    0.359375    0.328125    0.296875    
0.265625    0.234375    0.171875    0.203125    0.171875    
0.421875    0.390625    0.359375    0.328125    0.296875    
0.265625    0.234375    0.203125    0.171875    0.421875    
0.390625    0.359375    0.328125    0.296875    0.265625    
0.234375    0.203125    0.171875    0.421875    0.390625    
0.359375    0.328125    0.296875    0.265625    0.234375    
0.203125    0.171875    0.421875    0.390625    0.359375    
0.328125    0.296875    0.265625    0.234375    
9     2     1     8     
2     9     10     3     
9     8     19     20     
10     9     20     21     
16     5     4     15     
5     16     17     6     
16     15     27     28     
6     17     18     7     
17     16     28     29     
7     18     19     8     
18     17     29     30     
19     18     30     31     
20     19     31     32     
21     20     32     33     
24     12     11     23     
12     24     25     13     
24     23     35     36     
13     25     26     14     
25     24     36     37     
14     26     27     15     
26     25     37     38     
27     26     38     39     
28     27     39     40     
29     28     40     41     
30     29     41     42     
31     30     42     43     
32     31     43     44     
21     33     34     22     
33     32     44     45     
34     33     45     46     
38     37     47     48     
39     38     48     49     
40     39     49     50     
41     40     50     51     
42     41     51     52     
43     42     52     53     
44     43     53     54     
45     44     54     55     
46     45     55     56     
48     47     57     58     
49     48     58     59     
50     49     59     60     
51     50     60     61     
52     51     61     62     
53     52     62     63     
54     53     63     64     
55     54     64     65     
56     55     65     66     
58     57     67     68     
59     58     68     69     
60     59     69     70     
61     60     70     71     
62     61     71     72     
63     62     72     73     
64     63     73     74     
65     64     74     75     
66     65     75     76     
68     67     77     78     
69     68     78     79     
70     69     79     80     
71     70     80     81     
72     71     81     82     
73     72     82     83     
74     73     83     84     

