Title = " tecplot file for 2D Cavity problem " 
variables = "x", "y", "z", "velX", "cellCentroidY" 
Zone T = "nmesh0" N = 86 E = 64 DATAPACKING = BLOCK, VARLOCATION = ([4-5]=CELLCENTERED),  ZONETYPE=FEQUADRILATERAL 
0.8125    0.8125    0.8125    0.8125    0.8125    
0.8125    0.78125    0.78125    0.78125    0.78125    
0.78125    0.78125    0.78125    0.78125    0.78125    
0.78125    0.75    0.75    0.75    0.75    
0.75    0.75    0.75    0.75    0.75    
0.75    0.71875    0.71875    0.71875    0.71875    
0.71875    0.71875    0.71875    0.6875    0.6875    
0.6875    0.6875    0.6875    0.6875    0.6875    
0.65625    0.65625    0.65625    0.65625    0.65625    
0.65625    0.625    0.625    0.625    0.625    
0.625    0.625    0.59375    0.59375    0.59375    
0.59375    0.59375    0.59375    0.5625    0.5625    
0.5625    0.5625    0.5625    0.5625    0.53125    
0.53125    0.53125    0.53125    0.53125    0.53125    
0.5    0.5    0.5    0.5    0.5    
0.5    0.46875    0.46875    0.46875    0.46875    
0.46875    0.4375    0.4375    0.4375    0.4375    
0.4375    
0.15625    0.125    0.09375    0.0625    0.03125    
0.0    0.28125    0.25    0.21875    0.1875    
0.15625    0.125    0.09375    0.0625    0.03125    
0.0    0.28125    0.25    0.21875    0.1875    
0.15625    0.125    0.09375    0.0625    0.03125    
0.0    0.1875    0.15625    0.125    0.09375    
0.0625    0.03125    0.0    0.1875    0.15625    
0.125    0.09375    0.0625    0.03125    0.0    
0.15625    0.125    0.09375    0.0625    0.03125    
0.0    0.15625    0.125    0.09375    0.0625    
0.03125    0.0    0.15625    0.125    0.09375    
0.0625    0.03125    0.0    0.15625    0.125    
0.09375    0.0625    0.03125    0.0    0.15625    
0.125    0.09375    0.0625    0.03125    0.0    
0.15625    0.125    0.09375    0.0625    0.03125    
0.0    0.125    0.09375    0.0625    0.03125    
0.0    0.125    0.09375    0.0625    0.03125    
0.0    
0.0    0.0    0.0    0.0    0.0    
0.0    0.0    0.0    0.0    0.0    
0.0    0.0    0.0    0.0    0.0    
0.0    0.0    0.0    0.0    0.0    
0.0    0.0    0.0    0.0    0.0    
0.0    0.0    0.0    0.0    0.0    
0.0    0.0    0.0    0.0    0.0    
0.0    0.0    0.0    0.0    0.0    
0.0    0.0    0.0    0.0    0.0    
0.0    0.0    0.0    0.0    0.0    
0.0    0.0    0.0    0.0    0.0    
0.0    0.0    0.0    0.0    0.0    
0.0    0.0    0.0    0.0    0.0    
0.0    0.0    0.0    0.0    0.0    
0.0    0.0    0.0    0.0    0.0    
0.0    0.0    0.0    0.0    0.0    
0.0    0.0    0.0    0.0    0.0    
0.0    
12.0449177103    9.24685866547    13.5657016775    6.54039041166    10.4152486859    
3.8985813989    7.36725434398    1.29526661387    4.39163014156    1.45910565267    
27.8430553789    23.9525619802    20.3005680474    16.8498721503    18.570619248    
14.9527681373    11.4811800401    8.12174813448    4.84157917161    1.60863150764    
20.1093984423    16.1935715569    12.4349552031    8.79697898435    5.24430690724    
1.74247271488    17.2771643776    13.268090219    9.38690570239    5.59619675982    
1.85942515925    18.1942154644    13.9733355663    9.88635685101    5.89414926923    
1.95845632153    18.9370054621    14.5446796933    10.2910368692    6.13558714494    
2.03870717821    19.4994072092    14.9773408389    10.5975237933    6.3184552613    
2.09949242508    19.87685902    15.2677526255    10.8032622093    6.44121768531    
2.14029968566    20.066337793    15.4135484108    10.9065547457    6.50285358679    
2.16078831954    15.4135484303    10.9065547759    6.50285360604    2.1607883264    
15.2677526945    10.8032623022    6.44121774346    2.14029970762    
0.140625    0.109375    0.140625    0.078125    0.109375    
0.046875    0.078125    0.015625    0.046875    0.015625    
0.265625    0.234375    0.203125    0.171875    0.171875    
0.140625    0.109375    0.078125    0.046875    0.015625    
0.171875    0.140625    0.109375    0.078125    0.046875    
0.015625    0.140625    0.109375    0.078125    0.046875    
0.015625    0.140625    0.109375    0.078125    0.046875    
0.015625    0.140625    0.109375    0.078125    0.046875    
0.015625    0.140625    0.109375    0.078125    0.046875    
0.015625    0.140625    0.109375    0.078125    0.046875    
0.015625    0.140625    0.109375    0.078125    0.046875    
0.015625    0.109375    0.078125    0.046875    0.015625    
0.109375    0.078125    0.046875    0.015625    
12     2     1     11     
2     12     13     3     
12     11     21     22     
3     13     14     4     
13     12     22     23     
4     14     15     5     
14     13     23     24     
5     15     16     6     
15     14     24     25     
16     15     25     26     
18     8     7     17     
8     18     19     9     
9     19     20     10     
10     20     21     11     
21     20     27     28     
22     21     28     29     
23     22     29     30     
24     23     30     31     
25     24     31     32     
26     25     32     33     
28     27     34     35     
29     28     35     36     
30     29     36     37     
31     30     37     38     
32     31     38     39     
33     32     39     40     
36     35     41     42     
37     36     42     43     
38     37     43     44     
39     38     44     45     
40     39     45     46     
42     41     47     48     
43     42     48     49     
44     43     49     50     
45     44     50     51     
46     45     51     52     
48     47     53     54     
49     48     54     55     
50     49     55     56     
51     50     56     57     
52     51     57     58     
54     53     59     60     
55     54     60     61     
56     55     61     62     
57     56     62     63     
58     57     63     64     
60     59     65     66     
61     60     66     67     
62     61     67     68     
63     62     68     69     
64     63     69     70     
66     65     71     72     
67     66     72     73     
68     67     73     74     
69     68     74     75     
70     69     75     76     
73     72     77     78     
74     73     78     79     
75     74     79     80     
76     75     80     81     
78     77     82     83     
79     78     83     84     
80     79     84     85     
81     80     85     86     

