Title = " tecplot file for 2D Cavity problem " 
variables = "x", "y", "z", "velX", "cellCentroidY" 
Zone T = "nmesh0" N = 83 E = 64 DATAPACKING = BLOCK, VARLOCATION = ([4-5]=CELLCENTERED),  ZONETYPE=FEQUADRILATERAL 
0.96875    1.0    0.96875    1.0    0.96875    
1.0    0.96875    1.0    0.96875    1.0    
0.96875    1.0    0.96875    1.0    0.96875    
1.0    0.96875    1.0    0.96875    0.9375    
0.9375    0.9375    0.9375    0.9375    0.9375    
0.9375    0.9375    0.9375    0.9375    0.9375    
0.90625    0.90625    0.90625    0.90625    0.90625    
0.90625    0.90625    0.90625    0.90625    0.90625    
0.90625    0.875    0.875    0.875    0.875    
0.875    0.875    0.875    0.875    0.875    
0.875    0.875    0.84375    0.84375    0.84375    
0.84375    0.84375    0.84375    0.84375    0.84375    
0.84375    0.84375    0.84375    0.84375    0.8125    
0.8125    0.8125    0.8125    0.8125    0.8125    
0.8125    0.8125    0.8125    0.8125    0.8125    
0.8125    0.78125    0.78125    0.78125    0.78125    
0.78125    0.78125    1.0    
0.28125    0.28125    0.25    0.25    0.21875    
0.21875    0.1875    0.1875    0.15625    0.15625    
0.125    0.125    0.09375    0.09375    0.0625    
0.0625    0.03125    0.03125    0.0    0.28125    
0.3125    0.25    0.21875    0.1875    0.15625    
0.125    0.09375    0.0625    0.03125    0.0    
0.3125    0.28125    0.25    0.21875    0.1875    
0.15625    0.125    0.09375    0.0625    0.03125    
0.0    0.3125    0.28125    0.25    0.21875    
0.1875    0.15625    0.125    0.09375    0.0625    
0.03125    0.0    0.3125    0.34375    0.28125    
0.25    0.21875    0.1875    0.15625    0.125    
0.09375    0.0625    0.03125    0.0    0.34375    
0.3125    0.28125    0.25    0.21875    0.1875    
0.15625    0.125    0.09375    0.0625    0.03125    
0.0    0.3125    0.28125    0.25    0.21875    
0.1875    0.15625    0.0    
0.0    0.0    0.0    0.0    0.0    
0.0    0.0    0.0    0.0    0.0    
0.0    0.0    0.0    0.0    0.0    
0.0    0.0    0.0    0.0    0.0    
0.0    0.0    0.0    0.0    0.0    
0.0    0.0    0.0    0.0    0.0    
0.0    0.0    0.0    0.0    0.0    
0.0    0.0    0.0    0.0    0.0    
0.0    0.0    0.0    0.0    0.0    
0.0    0.0    0.0    0.0    0.0    
0.0    0.0    0.0    0.0    0.0    
0.0    0.0    0.0    0.0    0.0    
0.0    0.0    0.0    0.0    0.0    
0.0    0.0    0.0    0.0    0.0    
0.0    0.0    0.0    0.0    0.0    
0.0    0.0    0.0    0.0    0.0    
0.0    0.0    0.0    
2.04998861522    1.76165771729    6.12820649164    1.49178084395    5.26651912477    
1.23736517196    4.45988133113    0.99566507897    3.69937993654    0.764128688085    
2.9768315352    0.540353019461    2.28462534201    0.322045336611    1.61559107345    
0.106988831026    0.962884833015    0.319887651053    10.1415403588    8.71633095668    
7.38184541685    6.1234417094    4.92765578238    3.78195007466    2.67450109978    
1.59401527603    0.529564592965    11.6735985867    16.1675846777    14.0480253974    
12.0754189242    10.2277276689    8.4848857001    6.82839981241    5.24101807554    
3.70644797969    2.20911058399    0.733920038894    20.490118213    17.8075576048    
15.3095916693    12.9687606297    10.7599736068    8.66003969113    6.64727443671    
4.70116216476    2.80205904587    0.93092501913    24.5976580458    21.382495116    
18.3866295031    15.5777495672    12.9262084    10.4045109126    7.98687781297    
5.64886720565    3.36703841984    1.11864601232    28.0677100253    28.4503088071    
24.7381352881    21.2766816514    18.0293997205    14.9625995161    
0.265625    0.234375    0.265625    0.203125    0.234375    
0.171875    0.203125    0.140625    0.171875    0.109375    
0.140625    0.078125    0.109375    0.046875    0.078125    
0.015625    0.046875    0.015625    0.265625    0.234375    
0.203125    0.171875    0.140625    0.109375    0.078125    
0.046875    0.015625    0.296875    0.296875    0.265625    
0.234375    0.203125    0.171875    0.140625    0.109375    
0.078125    0.046875    0.015625    0.296875    0.265625    
0.234375    0.203125    0.171875    0.140625    0.109375    
0.078125    0.046875    0.015625    0.296875    0.265625    
0.234375    0.203125    0.171875    0.140625    0.109375    
0.078125    0.046875    0.015625    0.328125    0.296875    
0.265625    0.234375    0.203125    0.171875    
3     4     2     1     
4     3     5     6     
3     1     20     22     
6     5     7     8     
5     3     22     23     
8     7     9     10     
7     5     23     24     
10     9     11     12     
9     7     24     25     
12     11     13     14     
11     9     25     26     
14     13     15     16     
13     11     26     27     
16     15     17     18     
15     13     27     28     
18     17     19     83     
17     15     28     29     
19     17     29     30     
22     20     32     33     
23     22     33     34     
24     23     34     35     
25     24     35     36     
26     25     36     37     
27     26     37     38     
28     27     38     39     
29     28     39     40     
30     29     40     41     
32     20     21     31     
32     31     42     43     
33     32     43     44     
34     33     44     45     
35     34     45     46     
36     35     46     47     
37     36     47     48     
38     37     48     49     
39     38     49     50     
40     39     50     51     
41     40     51     52     
43     42     53     55     
44     43     55     56     
45     44     56     57     
46     45     57     58     
47     46     58     59     
48     47     59     60     
49     48     60     61     
50     49     61     62     
51     50     62     63     
52     51     63     64     
55     53     66     67     
56     55     67     68     
57     56     68     69     
58     57     69     70     
59     58     70     71     
60     59     71     72     
61     60     72     73     
62     61     73     74     
63     62     74     75     
64     63     75     76     
66     53     54     65     
67     66     77     78     
68     67     78     79     
69     68     79     80     
70     69     80     81     
71     70     81     82     

