Title = " tecplot file for 2D Cavity problem " 
variables = "x", "y", "z", "velX", "cellCentroidY" 
Zone T = "nmesh0" N = 81 E = 64 DATAPACKING = BLOCK, VARLOCATION = ([4-5]=CELLCENTERED), ZONETYPE=FEQUADRILATERAL
0.25    0.25    0.25    0.25    0.25    
0.25    0.25    0.25    0.25    0.21875    
0.21875    0.21875    0.21875    0.21875    0.21875    
0.21875    0.21875    0.21875    0.1875    0.1875    
0.1875    0.1875    0.1875    0.1875    0.1875    
0.1875    0.1875    0.15625    0.15625    0.15625    
0.15625    0.15625    0.15625    0.15625    0.15625    
0.15625    0.125    0.125    0.125    0.125    
0.125    0.125    0.125    0.125    0.125    
0.09375    0.09375    0.09375    0.09375    0.09375    
0.09375    0.09375    0.09375    0.09375    0.0625    
0.0625    0.0625    0.0625    0.0625    0.0625    
0.0625    0.0625    0.0625    0.03125    0.03125    
0.03125    0.03125    0.03125    0.03125    0.03125    
0.03125    0.03125    0.0    0.0    0.0    
0.0    0.0    0.0    0.0    0.0    
0.0    
0.75    0.71875    0.6875    0.65625    0.625    
0.59375    0.5625    0.53125    0.5    0.75    
0.71875    0.6875    0.65625    0.625    0.59375    
0.5625    0.53125    0.5    0.75    0.71875    
0.6875    0.65625    0.625    0.59375    0.5625    
0.53125    0.5    0.75    0.71875    0.6875    
0.65625    0.625    0.59375    0.5625    0.53125    
0.5    0.75    0.71875    0.6875    0.65625    
0.625    0.59375    0.5625    0.53125    0.5    
0.75    0.71875    0.6875    0.65625    0.625    
0.59375    0.5625    0.53125    0.5    0.75    
0.71875    0.6875    0.65625    0.625    0.59375    
0.5625    0.53125    0.5    0.75    0.71875    
0.6875    0.65625    0.625    0.59375    0.5625    
0.53125    0.5    0.75    0.71875    0.6875    
0.65625    0.625    0.59375    0.5625    0.53125    
0.5    
0.0    0.0    0.0    0.0    0.0    
0.0    0.0    0.0    0.0    0.0    
0.0    0.0    0.0    0.0    0.0    
0.0    0.0    0.0    0.0    0.0    
0.0    0.0    0.0    0.0    0.0    
0.0    0.0    0.0    0.0    0.0    
0.0    0.0    0.0    0.0    0.0    
0.0    0.0    0.0    0.0    0.0    
0.0    0.0    0.0    0.0    0.0    
0.0    0.0    0.0    0.0    0.0    
0.0    0.0    0.0    0.0    0.0    
0.0    0.0    0.0    0.0    0.0    
0.0    0.0    0.0    0.0    0.0    
0.0    0.0    0.0    0.0    0.0    
0.0    0.0    0.0    0.0    0.0    
0.0    0.0    0.0    0.0    0.0    
0.0    
157.462452749    140.979271026    126.332767415    113.285346155    101.629089314    
91.18430694    81.7965243712    73.3330195716    143.492403327    127.83698446    
114.095398779    101.977719514    91.2422715391    81.6885106521    73.1498747007    
65.4874131108    127.265191622    112.780864562    100.234123659    89.2878615013    
79.6737665906    71.1775893401    63.6270505775    56.8823263194    108.678016233    
95.7871584674    84.7723697693    75.2658362258    66.9873439657    59.7210295247    
53.2984119368    47.5861257836    87.7283105923    76.9173832499    67.802360718    
60.0157696483    53.2887435031    47.4207728387    42.259441848    37.6867057249    
64.5712363554    56.3517031971    49.5039201853    43.7061381363    38.7310875496    
34.4138764697    30.6318768853    27.2917847882    39.5735480094    34.4142729686    
30.1554786981    26.5737751648    23.5155920925    20.871768609    18.5624044391    
16.5274707241    13.3375904361    11.5763619775    10.1299464828    8.91789174011    
7.88573705464    6.99520144189    6.21850154766    5.53490185958    
0.734375    0.703125    0.671875    0.640625    0.609375    
0.578125    0.546875    0.515625    0.734375    0.703125    
0.671875    0.640625    0.609375    0.578125    0.546875    
0.515625    0.734375    0.703125    0.671875    0.640625    
0.609375    0.578125    0.546875    0.515625    0.734375    
0.703125    0.671875    0.640625    0.609375    0.578125    
0.546875    0.515625    0.734375    0.703125    0.671875    
0.640625    0.609375    0.578125    0.546875    0.515625    
0.734375    0.703125    0.671875    0.640625    0.609375    
0.578125    0.546875    0.515625    0.734375    0.703125    
0.671875    0.640625    0.609375    0.578125    0.546875    
0.515625    0.734375    0.703125    0.671875    0.640625    
0.609375    0.578125    0.546875    0.515625    
11     2     1     10     
2     11     12     3     
3     12     13     4     
4     13     14     5     
5     14     15     6     
6     15     16     7     
7     16     17     8     
8     17     18     9     
11     10     19     20     
12     11     20     21     
13     12     21     22     
14     13     22     23     
15     14     23     24     
16     15     24     25     
17     16     25     26     
18     17     26     27     
20     19     28     29     
21     20     29     30     
22     21     30     31     
23     22     31     32     
24     23     32     33     
25     24     33     34     
26     25     34     35     
27     26     35     36     
29     28     37     38     
30     29     38     39     
31     30     39     40     
32     31     40     41     
33     32     41     42     
34     33     42     43     
35     34     43     44     
36     35     44     45     
38     37     46     47     
39     38     47     48     
40     39     48     49     
41     40     49     50     
42     41     50     51     
43     42     51     52     
44     43     52     53     
45     44     53     54     
47     46     55     56     
48     47     56     57     
49     48     57     58     
50     49     58     59     
51     50     59     60     
52     51     60     61     
53     52     61     62     
54     53     62     63     
56     55     64     65     
57     56     65     66     
58     57     66     67     
59     58     67     68     
60     59     68     69     
61     60     69     70     
62     61     70     71     
63     62     71     72     
65     64     73     74     
66     65     74     75     
67     66     75     76     
68     67     76     77     
69     68     77     78     
70     69     78     79     
71     70     79     80     
72     71     80     81     

