Title = " tecplot file for 2D Cavity problem " 
variables = "x", "y", "z", "velX", "cellCentroidY" 
Zone T = "nmesh0" N = 81 E = 64 DATAPACKING = BLOCK, VARLOCATION = ([4-5]=CELLCENTERED), ZONETYPE=FEQUADRILATERAL
0.75    0.75    0.75    0.75    0.75    
0.75    0.75    0.75    0.75    0.71875    
0.71875    0.71875    0.71875    0.71875    0.71875    
0.71875    0.71875    0.71875    0.6875    0.6875    
0.6875    0.6875    0.6875    0.6875    0.6875    
0.6875    0.6875    0.65625    0.65625    0.65625    
0.65625    0.65625    0.65625    0.65625    0.65625    
0.65625    0.625    0.625    0.625    0.625    
0.625    0.625    0.625    0.625    0.625    
0.59375    0.59375    0.59375    0.59375    0.59375    
0.59375    0.59375    0.59375    0.59375    0.5625    
0.5625    0.5625    0.5625    0.5625    0.5625    
0.5625    0.5625    0.5625    0.53125    0.53125    
0.53125    0.53125    0.53125    0.53125    0.53125    
0.53125    0.53125    0.5    0.5    0.5    
0.5    0.5    0.5    0.5    0.5    
0.5    
0.25    0.21875    0.1875    0.15625    0.125    
0.09375    0.0625    0.03125    0.0    0.25    
0.21875    0.1875    0.15625    0.125    0.09375    
0.0625    0.03125    0.0    0.25    0.21875    
0.1875    0.15625    0.125    0.09375    0.0625    
0.03125    0.0    0.25    0.21875    0.1875    
0.15625    0.125    0.09375    0.0625    0.03125    
0.0    0.25    0.21875    0.1875    0.15625    
0.125    0.09375    0.0625    0.03125    0.0    
0.25    0.21875    0.1875    0.15625    0.125    
0.09375    0.0625    0.03125    0.0    0.25    
0.21875    0.1875    0.15625    0.125    0.09375    
0.0625    0.03125    0.0    0.25    0.21875    
0.1875    0.15625    0.125    0.09375    0.0625    
0.03125    0.0    0.25    0.21875    0.1875    
0.15625    0.125    0.09375    0.0625    0.03125    
0.0    
0.0    0.0    0.0    0.0    0.0    
0.0    0.0    0.0    0.0    0.0    
0.0    0.0    0.0    0.0    0.0    
0.0    0.0    0.0    0.0    0.0    
0.0    0.0    0.0    0.0    0.0    
0.0    0.0    0.0    0.0    0.0    
0.0    0.0    0.0    0.0    0.0    
0.0    0.0    0.0    0.0    0.0    
0.0    0.0    0.0    0.0    0.0    
0.0    0.0    0.0    0.0    0.0    
0.0    0.0    0.0    0.0    0.0    
0.0    0.0    0.0    0.0    0.0    
0.0    0.0    0.0    0.0    0.0    
0.0    0.0    0.0    0.0    0.0    
0.0    0.0    0.0    0.0    0.0    
0.0    0.0    0.0    0.0    0.0    
0.0    
26.3899430184    22.3704385065    18.5706195193    14.9527683838    11.4811802604    
8.12174831129    4.84157928735    1.60863154858    28.5674528026    24.2206230326    
20.1093987232    16.193571788    12.4349554086    8.79697915279    5.24430701568    
1.74247275219    30.4666933608    25.8352019818    21.4527805131    17.2771646054    
13.2680904076    9.3869058565    5.59619685859    1.85942519326    32.0721920779    
27.2007109421    22.5893567435    18.1942157083    13.9733357546    9.88635700295    
5.89414936636    1.95845635466    33.3713113381    28.3060928873    23.509719802    
18.9370057244    14.5446798933    10.2910370295    6.13558724669    2.03870721323    
34.3541351209    29.1426293777    24.2064238555    19.4994074891    14.9773410587    
10.5975239705    6.3184553753    2.09949246415    35.0133522681    29.7038655634    
24.6739387491    19.8768593164    15.2677528763    10.8032624137    6.4412178173    
2.14029973157    35.3441532013    29.9855417599    24.908606275    20.0663381496    
15.4135487101    10.9065549857    6.50285374532    2.1607883755    
0.234375    0.203125    0.171875    0.140625    0.109375    
0.078125    0.046875    0.015625    0.234375    0.203125    
0.171875    0.140625    0.109375    0.078125    0.046875    
0.015625    0.234375    0.203125    0.171875    0.140625    
0.109375    0.078125    0.046875    0.015625    0.234375    
0.203125    0.171875    0.140625    0.109375    0.078125    
0.046875    0.015625    0.234375    0.203125    0.171875    
0.140625    0.109375    0.078125    0.046875    0.015625    
0.234375    0.203125    0.171875    0.140625    0.109375    
0.078125    0.046875    0.015625    0.234375    0.203125    
0.171875    0.140625    0.109375    0.078125    0.046875    
0.015625    0.234375    0.203125    0.171875    0.140625    
0.109375    0.078125    0.046875    0.015625    
11     2     1     10     
2     11     12     3     
3     12     13     4     
4     13     14     5     
5     14     15     6     
6     15     16     7     
7     16     17     8     
8     17     18     9     
11     10     19     20     
12     11     20     21     
13     12     21     22     
14     13     22     23     
15     14     23     24     
16     15     24     25     
17     16     25     26     
18     17     26     27     
20     19     28     29     
21     20     29     30     
22     21     30     31     
23     22     31     32     
24     23     32     33     
25     24     33     34     
26     25     34     35     
27     26     35     36     
29     28     37     38     
30     29     38     39     
31     30     39     40     
32     31     40     41     
33     32     41     42     
34     33     42     43     
35     34     43     44     
36     35     44     45     
38     37     46     47     
39     38     47     48     
40     39     48     49     
41     40     49     50     
42     41     50     51     
43     42     51     52     
44     43     52     53     
45     44     53     54     
47     46     55     56     
48     47     56     57     
49     48     57     58     
50     49     58     59     
51     50     59     60     
52     51     60     61     
53     52     61     62     
54     53     62     63     
56     55     64     65     
57     56     65     66     
58     57     66     67     
59     58     67     68     
60     59     68     69     
61     60     69     70     
62     61     70     71     
63     62     71     72     
65     64     73     74     
66     65     74     75     
67     66     75     76     
68     67     76     77     
69     68     77     78     
70     69     78     79     
71     70     79     80     
72     71     80     81     

