title = " tecplot file for process Mesh " 
variables = "x",  "y", "z", "cell_type" 
zone N = 540 E = 2652 DATAPACKING = BLOCK,  VARLOCATION = ([4]=CELLCENTERED), ZONETYPE=FETETRAHEDRON 
-3.404604e-01     
-4.000000e-01     -3.381638e-01     -3.000000e-01     -5.000000e-01     -4.107988e-01     
-5.000000e-01     -5.000000e-01     5.000000e-01     5.000000e-01     3.995672e-01     
5.000000e-01     -4.175553e-01     -5.000000e-01     -5.000000e-01     -5.000000e-01     
-2.373131e-01     -2.342654e-01     -2.000000e-01     -5.000000e-01     -5.000000e-01     
-4.166611e-01     -5.000000e-01     -5.000000e-01     -5.000000e-01     -4.000277e-01     
-5.000000e-01     2.000000e-01     2.389279e-01     2.315374e-01     3.000000e-01     
-4.174345e-01     -5.000000e-01     -5.000000e-01     -5.000000e-01     5.000000e-01     
4.115682e-01     5.000000e-01     -5.000000e-01     -5.000000e-01     -4.193405e-01     
-5.000000e-01     -5.000000e-01     5.162404e-02     1.000000e-01     4.814886e-02     
0.000000e+00     1.320931e-01     1.373692e-01     4.157808e-01     5.000000e-01     
5.000000e-01     5.000000e-01     -1.373099e-01     -1.336076e-01     -1.000000e-01     
5.000000e-01     4.127664e-01     5.000000e-01     -4.301340e-01     -5.000000e-01     
-5.000000e-01     -4.133186e-01     -5.000000e-01     -5.000000e-01     5.000000e-01     
4.157596e-01     5.000000e-01     -5.000000e-01     -4.172115e-01     5.000000e-01     
4.125669e-01     5.000000e-01     5.000000e-01     4.164386e-01     4.322799e-01     
5.000000e-01     -4.139072e-01     -5.000000e-01     5.000000e-01     4.291383e-01     
5.000000e-01     5.000000e-01     4.283602e-01     4.000000e-01     4.122947e-01     
5.000000e-01     5.000000e-01     -5.000000e-01     -4.286001e-01     4.113895e-01     
5.000000e-01     5.000000e-01     -4.310226e-01     -4.153430e-01     5.000000e-01     
3.994830e-01     5.000000e-01     -3.690178e-02     -3.299005e-02     5.000000e-01     
4.122529e-01     5.000000e-01     5.000000e-01     4.160512e-01     5.000000e-01     
5.000000e-01     5.000000e-01     5.000000e-01     4.116530e-01     5.000000e-01     
4.216898e-01     5.000000e-01     4.064314e-01     5.000000e-01     5.000000e-01     
4.050492e-01     5.000000e-01     3.395765e-01     5.000000e-01     4.152798e-01     
5.000000e-01     5.000000e-01     5.000000e-01     5.000000e-01     4.187492e-01     
5.000000e-01     5.000000e-01     5.000000e-01     4.179799e-01     5.000000e-01     
4.057430e-01     5.000000e-01     4.057252e-01     5.000000e-01     3.261820e-01     
4.156964e-01     5.000000e-01     5.000000e-01     4.180293e-01     5.000000e-01     
3.274481e-01     4.167259e-01     5.000000e-01     4.176845e-01     3.267894e-01     
4.106547e-01     5.000000e-01     3.238392e-01     4.041428e-01     5.000000e-01     
5.000000e-01     4.088398e-01     5.000000e-01     4.052975e-01     5.000000e-01     
-2.280614e-01     -2.218774e-01     -2.606534e-01     -1.707134e-01     -3.952441e-01     
-2.398445e-01     -1.840360e-01     -1.578482e-01     -3.610812e-01     5.350412e-02     
2.404603e-02     4.542300e-02     -3.276804e-01     -3.586965e-01     2.841273e-01     
3.373877e-01     3.284685e-01     -3.870824e-01     -3.299054e-01     -2.219904e-03     
1.069165e-01     1.102617e-01     5.725045e-02     1.532372e-01     -1.126532e-01     
-1.661876e-01     -2.973002e-01     -3.243758e-01     2.284486e-01     2.930988e-01     
3.223794e-01     2.343925e-01     -3.838672e-01     -5.000000e-01     -7.702763e-02     
-6.448521e-02     -7.230087e-02     1.615903e-01     1.835402e-01     1.743233e-01     
1.739911e-01     1.343435e-01     2.947400e-01     -2.941142e-01     -5.978610e-02     
1.821804e-02     7.594516e-02     1.659874e-01     1.126964e-01     -1.321488e-03     
-5.899501e-02     -5.000000e-01     -4.203127e-01     -5.000000e-01     -4.149223e-01     
-5.000000e-01     -5.000000e-01     -5.000000e-01     -4.061858e-01     -5.000000e-01     
-3.356435e-01     -5.000000e-01     -5.000000e-01     -4.218143e-01     -5.000000e-01     
-5.000000e-01     -5.000000e-01     -5.000000e-01     -4.046798e-01     -5.000000e-01     
-5.000000e-01     -4.171720e-01     -3.350561e-01     -3.331898e-01     -4.112100e-01     
-5.000000e-01     -4.090414e-01     -5.000000e-01     -5.000000e-01     -4.171813e-01     
-5.000000e-01     -5.000000e-01     -4.129813e-01     -3.985716e-01     -5.000000e-01     
-4.110969e-01     -5.000000e-01     -4.093138e-01     -5.000000e-01     -4.012287e-01     
-5.000000e-01     -5.000000e-01     -4.004549e-01     -3.207404e-01     -2.236791e-01     
-2.122135e-01     -2.372702e-01     -2.794365e-01     -2.659833e-01     -1.216309e-01     
-1.213131e-01     -7.023525e-02     -1.720731e-01     -3.081379e-02     1.388457e-01     
1.257259e-01     1.647137e-01     2.398885e-01     3.315904e-02     7.361816e-02     
2.149701e-01     2.403081e-01     -2.228654e-01     -2.592530e-01     -2.171179e-01     
-2.469646e-01     -3.000968e-01     -3.093621e-01     2.551958e-01     3.057762e-01     
3.359509e-01     -8.869461e-02     1.007085e-02     -1.777137e-01     -1.247503e-01     
-1.242364e-01     2.198374e-01     2.122078e-01     -1.693979e-02     -1.374316e-02     
2.532114e-02     9.010778e-02     9.831866e-02     1.017773e-01     2.611884e-01     
7.184389e-02     5.683595e-02     1.318427e-01     4.162771e-01     5.000000e-01     
4.222639e-01     4.162213e-01     2.414977e-01     3.342662e-01     3.400973e-01     
4.168254e-01     4.201413e-01     4.077294e-01     3.935449e-01     4.127808e-01     
4.044243e-01     4.108065e-01     4.224014e-01     4.114264e-01     -3.014557e-01     
4.256443e-01     -4.151901e-01     -1.577996e-01     2.302940e-01     2.397751e-01     
-2.357043e-01     -1.455835e-01     2.298208e-02     -8.249390e-02     5.798689e-02     
-4.291523e-01     -4.179853e-01     -4.012225e-01     -4.048229e-01     -5.000000e-01     
-3.882388e-01     -4.039991e-01     -4.073702e-01     -3.980864e-01     -4.099830e-01     
-4.107858e-01     -4.199913e-01     -4.309317e-01     -5.000000e-01     -3.352787e-01     
4.251245e-01     3.059595e-01     2.940060e-01     -3.252054e-01     -2.073977e-01     
-3.195370e-01     -3.846262e-01     3.412820e-01     3.402839e-01     -1.549392e-01     
-1.993978e-01     -1.455887e-02     -1.011208e-01     1.074770e-01     1.772043e-01     
3.300659e-01     1.598904e-01     1.725313e-01     3.549314e-01     3.989734e-01     
3.287299e-01     3.217735e-01     4.085175e-01     4.242607e-01     3.855291e-01     
-3.532096e-01     -3.001219e-01     -2.192257e-01     5.099820e-02     -3.326272e-01     
-3.111418e-01     -3.699585e-01     -4.323981e-01     -2.885194e-01     -3.108277e-01     
-1.508407e-01     -3.068360e-01     2.756920e-01     3.326454e-01     3.216928e-01     
4.041414e-02     2.351180e-01     1.635917e-01     2.714558e-01     1.800400e-01     
2.374924e-01     4.238071e-01     3.300526e-01     1.324135e-01     2.987331e-01     
3.027383e-01     3.348320e-01     2.706521e-01     3.207333e-01     3.281580e-01     
-2.187474e-01     3.415252e-01     2.859465e-01     -9.169678e-02     -7.259330e-02     
4.150350e-02     -3.057680e-01     -3.680274e-01     -2.808388e-01     -3.351033e-01     
-3.249335e-01     -3.190908e-01     -4.459200e-01     -4.116511e-02     -2.958604e-01     
-3.232901e-01     -3.294297e-01     -2.990160e-01     3.455114e-01     3.228332e-01     
2.873197e-01     2.484531e-01     3.297590e-01     -1.566757e-01     -1.976659e-01     
-2.143522e-01     -1.941556e-01     -4.494119e-02     -1.235899e-01     1.216839e-01     
1.970003e-01     1.344816e-01     1.984868e-01     2.364088e-01     3.399738e-01     
-8.676880e-02     -8.321667e-02     -1.493282e-02     -1.074120e-01     -1.728598e-01     
-1.801793e-02     6.172850e-02     2.018539e-01     3.696570e-01     3.053391e-01     
2.004760e-01     2.290357e-01     1.294959e-01     2.025246e-01     1.723560e-01     
1.379049e-01     3.195085e-01     -2.195652e-01     2.518770e-01     9.941892e-02     
1.096724e-01     -4.979227e-03     -1.592612e-01     -1.874493e-01     -1.123977e-01     
-8.172463e-03     -3.257467e-01     -2.711606e-01     -2.644272e-01     -3.133363e-01     
-3.315409e-01     -2.204938e-01     -3.408194e-01     -2.234484e-01     -3.205075e-01     
-1.961513e-01     -3.398157e-01     -3.379727e-01     -2.707177e-01     3.374313e-01     
3.031765e-01     1.936646e-01     9.507482e-02     3.249805e-01     -1.231269e-01     
3.490453e-02     -2.466631e-01     -1.342607e-01     2.624738e-01     -1.528662e-01     
-2.368652e-01     -2.594341e-01     2.703795e-01     7.790079e-02     1.364820e-01     
9.822835e-05     -2.541109e-02     -2.362282e-02     -1.372274e-01     -1.060894e-01     
5.703769e-02     2.813883e-02     1.498652e-01     1.277205e-01     8.985814e-02     
2.590701e-01     2.964894e-01     2.110073e-01     -2.688934e-01     -2.923586e-02     
-2.178522e-02     -8.906240e-02     -4.701431e-02     -2.328602e-01     2.364907e-01     
2.446918e-01     -5.759796e-02     2.306298e-01     -1.985911e-01     -2.844957e-01     
2.566635e-01     3.301622e-01     3.144869e-01     -7.420712e-02     -2.095044e-01     
-1.225027e-01     -1.488294e-01     -3.165824e-02     4.927584e-02     6.713383e-02     
1.228397e-01     2.477107e-01     2.167192e-01     -1.007032e-01     -6.652962e-02     
-1.979535e-02     4.498285e-02     -1.295475e-01     -9.724456e-02     -1.980450e-02     
2.118781e-01     -1.324849e-01     -1.170894e-01     -6.291875e-02     2.567880e-02     
-1.504259e-01     -1.471830e-02     -4.316724e-01     -8.826555e-02     4.357722e-01     
-1.600410e-01     2.626539e-01     5.290087e-02     -2.346084e-01     
4.022555e-01     
5.000000e-01     5.000000e-01     5.000000e-01     -1.000000e-01     -1.445889e-01     
-1.336441e-01     -2.000000e-01     3.996975e-01     5.000000e-01     5.000000e-01     
5.000000e-01     1.440526e-01     1.370172e-01     2.000000e-01     1.000000e-01     
4.136222e-01     5.000000e-01     5.000000e-01     4.312377e-01     5.000000e-01     
5.000000e-01     4.147818e-01     5.000000e-01     0.000000e+00     -3.358090e-02     
-3.315300e-02     5.000000e-01     5.000000e-01     4.113143e-01     5.000000e-01     
5.000000e-01     5.000000e-01     3.988263e-01     5.000000e-01     4.118837e-01     
5.000000e-01     5.000000e-01     3.000000e-01     3.398221e-01     3.431352e-01     
4.000000e-01     4.281127e-01     5.000000e-01     5.000000e-01     4.319890e-01     
5.000000e-01     4.154058e-01     5.000000e-01     3.394775e-01     3.402928e-01     
3.000000e-01     4.000000e-01     4.135794e-01     5.000000e-01     5.000000e-01     
2.387814e-01     2.380280e-01     2.000000e-01     5.000000e-01     5.000000e-01     
5.000000e-01     5.000000e-01     4.105989e-01     5.000000e-01     1.370487e-01     
1.364753e-01     1.000000e-01     2.384145e-01     2.439914e-01     4.126178e-01     
5.000000e-01     -3.345431e-02     0.000000e+00     -3.416514e-02     5.080411e-02     
5.132827e-02     5.000000e-01     4.102224e-01     -1.000000e-01     4.279073e-01     
5.000000e-01     4.283888e-01     5.000000e-01     5.000000e-01     -1.348476e-01     
-1.342329e-01     -2.000000e-01     5.141707e-02     5.547660e-02     -2.351197e-01     
-2.350089e-01     -3.000000e-01     4.296031e-01     5.000000e-01     -3.389313e-01     
-3.385744e-01     -4.000000e-01     4.166410e-01     5.000000e-01     -2.623326e-01     
-2.232663e-01     -1.724573e-01     -1.636444e-01     -1.911011e-01     -2.461408e-01     
-1.635182e-01     -2.533145e-01     3.289274e-01     3.547036e-01     3.232997e-01     
3.894597e-01     4.321533e-01     3.957228e-01     4.162748e-01     3.387404e-01     
2.353442e-02     5.272929e-02     5.137032e-02     1.556951e-01     1.805055e-01     
1.481582e-01     2.376631e-01     5.648026e-02     -8.318273e-02     -5.134342e-02     
-6.639593e-02     -4.451597e-03     -3.333612e-01     -3.024566e-01     -2.314059e-01     
1.160623e-01     6.911759e-02     -1.703471e-01     -1.159911e-01     2.821727e-01     
2.877733e-01     2.842456e-01     3.268247e-01     3.852755e-01     4.163841e-01     
5.000000e-01     5.000000e-01     -6.578211e-02     -7.782309e-02     -6.683582e-02     
1.832712e-01     1.739836e-01     1.721953e-01     1.072413e-01     1.095486e-01     
-4.094274e-03     -6.195581e-02     2.371940e-01     2.708136e-01     2.365064e-01     
5.000000e-01     4.117052e-01     5.000000e-01     5.000000e-01     4.192679e-01     
5.000000e-01     4.139662e-01     5.000000e-01     4.217566e-01     5.000000e-01     
4.053658e-01     3.385251e-01     5.000000e-01     4.200801e-01     5.000000e-01     
4.055327e-01     5.000000e-01     4.195935e-01     5.000000e-01     5.000000e-01     
4.095111e-01     5.000000e-01     5.000000e-01     5.000000e-01     5.000000e-01     
4.153015e-01     4.178582e-01     5.000000e-01     5.000000e-01     4.141646e-01     
5.000000e-01     5.000000e-01     4.184441e-01     3.190682e-01     4.098804e-01     
5.000000e-01     3.279475e-01     3.231408e-01     4.170601e-01     5.000000e-01     
4.047340e-01     5.000000e-01     4.135265e-01     4.061553e-01     4.098295e-01     
5.000000e-01     4.048878e-01     5.000000e-01     4.008107e-01     4.034381e-01     
5.000000e-01     -7.039417e-02     -5.276190e-02     -8.366834e-03     3.543992e-02     
-7.952470e-02     -6.024899e-03     -1.694939e-01     2.371462e-02     5.287977e-02     
7.334503e-02     -6.462224e-02     -5.781284e-02     -1.074298e-01     -1.120386e-01     
-2.988429e-03     -1.524380e-01     2.253119e-01     2.782176e-01     2.828253e-01     
3.265156e-01     2.870207e-01     2.906836e-01     1.874109e-01     -7.713979e-02     
1.472925e-01     1.018513e-01     5.069471e-02     1.075666e-01     1.828131e-01     
1.730076e-01     2.279456e-01     2.001833e-01     -1.273472e-01     -1.330231e-01     
-3.368854e-03     2.320153e-01     2.609036e-01     3.227500e-01     1.111513e-01     
3.244648e-01     3.369641e-01     2.998565e-01     -9.988136e-02     -6.364693e-02     
-1.187031e-01     2.365756e-01     2.868406e-01     3.332626e-01     6.950034e-02     
1.219470e-01     1.495979e-01     1.467428e-01     5.268583e-02     1.355264e-01     
7.468346e-02     4.390606e-02     1.054263e-01     1.431634e-01     4.461796e-02     
4.765546e-02     -6.365995e-03     1.732658e-01     1.364789e-01     4.358733e-02     
-1.137681e-02     -1.407082e-02     1.324116e-01     3.266989e-01     3.358306e-01     
3.986201e-01     2.957717e-02     -4.619670e-02     3.258750e-01     2.972227e-01     
2.378456e-01     2.240261e-01     2.912886e-01     1.774972e-01     2.397302e-01     
8.015574e-02     1.711531e-01     2.347697e-01     2.988119e-01     1.672159e-01     
-1.867797e-02     -1.449067e-01     -5.445517e-02     2.616783e-01     2.292181e-01     
3.186511e-01     4.163511e-01     5.000000e-01     4.051028e-01     5.000000e-01     
-1.587812e-01     1.047942e-01     3.710129e-02     9.888337e-02     -1.469433e-01     
-8.069215e-02     2.101569e-01     3.466218e-01     3.180684e-01     4.115051e-01     
4.255954e-01     4.189232e-01     4.170082e-01     4.226300e-01     4.138598e-01     
3.448426e-01     4.127330e-01     4.202925e-01     4.029161e-01     4.184704e-01     
3.473591e-01     -1.576366e-01     -1.330280e-01     1.368977e-01     1.225622e-01     
3.096416e-01     -1.467599e-01     -1.867207e-01     -1.729986e-02     3.438501e-01     
2.044487e-01     1.885479e-01     3.814265e-01     4.153630e-01     2.353282e-01     
-2.891129e-01     -4.787820e-03     -1.177917e-01     -6.026705e-02     7.716463e-02     
4.286206e-02     9.940011e-02     4.137511e-01     5.000000e-01     -4.088278e-02     
2.550259e-01     3.027324e-01     2.100443e-01     3.860737e-01     2.048148e-01     
2.392080e-01     -2.162367e-02     -1.083810e-01     3.347354e-01     2.116672e-01     
1.113949e-01     1.139438e-01     1.335088e-02     1.541344e-02     -2.228784e-01     
3.385218e-01     3.438568e-01     3.525965e-01     3.438358e-01     -2.137908e-01     
-1.080025e-01     -1.035602e-02     5.492080e-02     3.111055e-01     3.339733e-01     
2.813972e-01     2.230292e-01     -2.734785e-01     -2.507894e-01     -2.457445e-01     
2.383350e-01     3.358248e-01     3.041797e-01     3.182157e-01     1.265987e-01     
-5.458021e-02     3.012151e-01     1.666425e-01     -1.196046e-02     2.226308e-01     
1.367728e-01     -1.229664e-01     -3.283915e-02     3.692343e-02     2.526912e-02     
3.546374e-01     3.128120e-01     3.517081e-01     3.546533e-01     3.250863e-01     
3.297722e-01     5.341083e-04     -6.365939e-02     -9.868880e-02     6.012513e-02     
4.629024e-02     1.960923e-01     -6.669972e-02     2.975135e-01     1.426313e-01     
3.153785e-01     -1.397059e-01     -1.382256e-02     -1.704600e-01     -1.070667e-01     
5.197691e-02     -5.069630e-02     -6.153132e-02     2.329137e-01     -4.889083e-02     
7.034472e-02     9.643864e-03     2.392823e-01     2.798383e-01     2.295623e-01     
4.125538e-01     3.165263e-01     2.484177e-01     2.294673e-01     2.942431e-01     
-9.009057e-02     -8.937836e-02     4.256697e-03     5.526841e-02     1.322244e-01     
-2.307170e-02     4.238931e-02     2.480827e-01     1.874916e-01     2.955399e-01     
-2.639549e-02     6.272434e-02     2.548939e-02     1.135500e-01     -9.142106e-03     
1.597689e-01     2.058578e-01     2.656519e-01     3.252091e-01     2.734857e-01     
3.529183e-01     2.907968e-01     3.034090e-01     1.874650e-01     3.536054e-01     
3.690869e-01     7.434720e-02     -4.694584e-04     9.851786e-02     1.318267e-01     
2.397362e-01     2.618667e-01     3.508811e-01     1.567025e-01     -1.485078e-01     
-7.867744e-02     -4.623874e-02     -1.007755e-01     6.984407e-02     -1.634167e-01     
-1.926404e-01     5.585659e-02     5.786111e-02     -1.157303e-03     1.816885e-01     
1.444082e-01     2.135838e-01     1.714818e-01     -1.215376e-01     -1.510331e-01     
-1.330900e-01     1.197064e-02     1.656706e-01     8.039002e-03     -6.029281e-02     
6.465504e-02     -2.585592e-02     2.650584e-02     2.967240e-02     -4.147658e-03     
-2.981531e-02     2.280225e-02     -8.010773e-02     1.688261e-01     2.508757e-01     
-2.300906e-01     -1.408985e-01     -1.631262e-01     2.717184e-01     1.542729e-01     
2.582000e-01     2.243280e-01     3.464004e-01     1.794806e-01     -1.328112e-01     
4.125469e-02     1.039844e-01     -2.381574e-01     -6.445561e-02     -7.619716e-02     
1.297770e-01     9.571431e-02     2.378622e-01     7.852802e-02     8.959515e-02     
-6.285369e-02     4.590105e-02     9.773667e-02     1.473833e-01     1.077926e-01     
2.268459e-01     1.607134e-01     1.858947e-01     2.619822e-02     -5.878848e-02     
2.005905e-01     2.468048e-01     1.139759e-01     2.073334e-01     2.079427e-01     
-1.397422e-01     -1.283313e-01     1.427798e-01     -3.786000e-02     1.989295e-01     
1.972467e-01     1.290992e-01     5.084255e-02     4.389286e-01     1.573903e-01     
3.322039e-01     -7.572686e-02     1.878158e-01     2.948296e-01     
-5.000000e-01     
-5.000000e-01     -4.027361e-01     -5.000000e-01     -5.000000e-01     -5.000000e-01     
-4.148846e-01     -5.000000e-01     -3.386666e-01     -4.000000e-01     -3.384982e-01     
-3.000000e-01     -5.000000e-01     -4.174195e-01     -5.000000e-01     -5.000000e-01     
-5.000000e-01     -4.138855e-01     -5.000000e-01     5.178556e-02     0.000000e+00     
5.054534e-02     -3.296074e-02     1.000000e-01     -5.000000e-01     -5.000000e-01     
-4.181727e-01     -5.000000e-01     -4.145606e-01     -5.000000e-01     -5.000000e-01     
-3.436373e-01     -4.000000e-01     -3.382150e-01     -3.000000e-01     -2.353859e-01     
-2.350300e-01     -2.000000e-01     -5.000000e-01     -4.174615e-01     -5.000000e-01     
-5.000000e-01     -4.300104e-01     -4.324679e-01     -5.000000e-01     -5.000000e-01     
-5.000000e-01     -5.000000e-01     -4.166513e-01     -5.000000e-01     -4.175745e-01     
-5.000000e-01     -5.000000e-01     -5.000000e-01     -4.136191e-01     -5.000000e-01     
-4.143382e-01     -5.000000e-01     -5.000000e-01     -4.297294e-01     -5.000000e-01     
-1.000000e-01     -1.461086e-01     -1.337883e-01     -2.000000e-01     -4.160959e-01     
-5.000000e-01     -5.000000e-01     -4.147736e-01     -5.000000e-01     -1.351507e-01     
-1.347260e-01     -4.162155e-01     -5.000000e-01     -5.000000e-01     -5.000000e-01     
-4.318804e-01     -2.452230e-01     -2.344304e-01     -5.000000e-01     -5.000000e-01     
-5.000000e-01     -4.301846e-01     -4.301297e-01     -5.000000e-01     -5.000000e-01     
-4.134876e-01     -5.000000e-01     -4.334662e-01     -5.000000e-01     -5.000000e-01     
-4.142185e-01     -5.000000e-01     -5.000000e-01     -4.747242e-02     -4.033167e-01     
-5.000000e-01     -5.000000e-01     -5.000000e-01     -4.167731e-01     -3.353896e-01     
-3.588129e-01     -3.268307e-01     -1.650022e-01     -1.250842e-01     -1.357217e-01     
-7.452855e-02     -3.881931e-02     -2.620945e-01     -2.235773e-01     -1.732515e-01     
-3.954752e-01     4.966861e-02     7.764854e-02     1.338316e-01     4.944539e-02     
-3.954118e-01     -3.381394e-01     -5.000000e-01     -1.570971e-01     -1.121779e-01     
-6.347359e-02     -1.159630e-01     -1.330806e-01     -1.924155e-02     -6.902415e-02     
-1.328559e-01     -5.497502e-02     -9.511343e-02     -1.416553e-01     -2.409571e-01     
-1.415715e-02     -2.966943e-02     -2.145326e-01     -2.376384e-01     -5.000000e-01     
-3.875910e-01     -3.308602e-01     -6.729391e-02     -7.909091e-02     -3.482816e-02     
-6.652191e-02     -3.401332e-02     -3.266934e-01     -3.854655e-01     -5.000000e-01     
-3.855319e-01     -3.261616e-01     -5.000000e-01     -1.759934e-01     -2.378024e-01     
-2.336348e-01     -2.659889e-01     1.054914e-01     4.991876e-02     -5.180564e-03     
-2.390701e-01     -3.582186e-01     -3.343784e-01     -3.263920e-01     -3.920343e-01     
-1.315413e-01     -1.213704e-01     -1.627100e-01     5.095638e-02     -3.396225e-01     
-3.962878e-01     -5.000000e-01     -9.101599e-02     -4.478493e-02     -3.307702e-01     
-3.103053e-01     -2.616473e-01     -2.937346e-01     -2.923435e-01     -2.366291e-01     
-1.798795e-01     -2.405524e-01     -1.432273e-01     -1.558588e-01     -2.373861e-01     
-2.130554e-01     -1.380406e-01     -1.915644e-01     -2.292808e-01     -2.210789e-01     
-1.723085e-01     -1.134911e-01     -1.942987e-01     -1.710999e-01     -3.859875e-01     
-3.275702e-01     -5.000000e-01     -5.000000e-01     -3.860552e-01     -3.269536e-01     
-1.076036e-01     -5.346078e-02     -1.174405e-01     -2.409927e-01     -2.671951e-01     
-4.427509e-02     -1.726771e-02     4.475299e-02     -3.023762e-01     -1.709137e-01     
-1.328848e-01     1.303165e-01     7.028715e-02     5.496594e-02     7.123904e-02     
2.557900e-02     -4.723589e-02     5.774721e-02     -3.978846e-01     -3.420148e-01     
-5.000000e-01     -3.308520e-01     -1.486378e-01     -1.848963e-01     -2.427303e-01     
-2.427119e-01     -1.633208e-01     -2.290687e-01     -2.736084e-01     -3.306616e-01     
-2.610949e-01     -3.876322e-01     -5.000000e-01     -5.000000e-01     -3.879698e-01     
-1.564646e-01     -1.819551e-01     -1.468052e-01     -2.425956e-01     -3.866538e-01     
-3.277683e-01     -1.117702e-01     -1.657678e-01     7.441303e-03     -6.100230e-02     
-1.793849e-01     -7.773377e-04     -5.895842e-02     -6.432774e-02     -3.041262e-01     
1.753759e-01     5.410100e-02     1.138530e-01     -5.000000e-01     -5.000000e-01     
-4.178016e-01     -5.000000e-01     -4.176479e-01     -5.000000e-01     -5.000000e-01     
-4.168171e-01     -5.000000e-01     -5.000000e-01     -5.000000e-01     -5.000000e-01     
-4.222678e-01     -5.000000e-01     -5.000000e-01     -5.000000e-01     -5.000000e-01     
-4.087213e-01     -5.000000e-01     -4.093704e-01     -5.000000e-01     -5.000000e-01     
-4.174976e-01     -5.000000e-01     -4.068440e-01     -5.000000e-01     -4.045871e-01     
-5.000000e-01     -4.156847e-01     -5.000000e-01     -5.000000e-01     -4.139142e-01     
-5.000000e-01     -5.000000e-01     -4.113362e-01     -4.123455e-01     -5.000000e-01     
-4.095245e-01     -4.124722e-01     -5.000000e-01     -4.043216e-01     -4.017895e-01     
-4.061719e-01     -5.000000e-01     -5.000000e-01     -1.772360e-01     -2.297660e-01     
-3.043166e-01     -1.612047e-01     -5.755671e-03     -7.463498e-03     5.170053e-02     
-4.167074e-01     -4.199397e-01     -1.084327e-01     -2.980193e-01     -3.047901e-01     
-1.657397e-01     -2.246080e-02     2.956004e-03     1.320240e-01     -4.124435e-01     
-2.893631e-01     -1.121461e-01     -4.160523e-01     -2.981142e-01     -4.189146e-02     
-1.800250e-01     -3.042047e-01     -3.056513e-01     -1.073510e-01     -1.046229e-01     
-3.236253e-01     -4.158507e-01     -2.917118e-01     -8.658382e-02     -5.375772e-02     
-1.671312e-01     -9.251752e-02     8.501758e-02     -2.918028e-01     3.187424e-03     
1.765416e-02     -2.571999e-01     9.096564e-02     1.377013e-01     -3.425590e-01     
-4.258819e-01     -4.174105e-01     -4.132928e-01     -4.167946e-01     -4.091550e-01     
-4.162048e-01     -4.336902e-01     -4.152184e-01     -4.175468e-01     -4.128204e-01     
-4.245586e-01     -4.093153e-01     -4.171644e-01     -4.198610e-01     -4.189208e-01     
-4.029951e-01     -4.216653e-01     -4.039369e-01     -1.412307e-01     -2.769245e-01     
-4.307480e-01     -9.437782e-02     -2.034161e-01     -3.083366e-01     -2.781716e-01     
-4.254589e-01     -3.286454e-01     -4.253585e-01     -2.395470e-01     -3.136316e-02     
9.417112e-02     -4.206277e-02     -5.669591e-02     -6.285127e-02     -1.416691e-01     
-8.719599e-02     -2.235383e-01     -2.850476e-01     -3.445451e-01     -1.798691e-01     
-3.814029e-01     -1.688089e-01     -3.137295e-01     -2.785619e-01     -3.488011e-01     
-4.126243e-01     -1.002472e-01     -3.312094e-01     -3.214455e-01     -1.538955e-01     
9.029134e-03     -8.873213e-02     -1.065757e-01     -1.595744e-01     -5.044899e-02     
-2.757137e-01     -4.478111e-02     4.700822e-02     -1.924303e-01     -3.260200e-01     
-3.349932e-01     5.383750e-02     -1.203543e-01     -2.804394e-02     -1.156740e-01     
-2.333918e-01     -4.586274e-02     -8.017357e-02     -4.334588e-02     -2.980134e-01     
-2.406454e-01     -2.178115e-01     -3.263607e-01     -3.850297e-01     -2.262354e-01     
-3.161945e-01     -2.742190e-01     -3.355425e-01     -3.332785e-01     -2.167022e-01     
-2.335928e-01     -3.232020e-01     -3.534882e-01     -2.475486e-01     -3.603571e-01     
-2.097569e-01     -1.955454e-01     -2.258107e-01     -3.214489e-01     -3.321700e-01     
-2.447248e-01     -3.510303e-01     -3.071596e-01     -2.669173e-01     -3.175967e-01     
-3.937222e-01     -3.359748e-01     -1.201743e-01     -1.958169e-01     -2.014007e-01     
-2.407255e-02     -8.574390e-02     -8.765528e-02     -1.752547e-01     -1.929470e-01     
-2.521278e-01     -5.911103e-02     -2.351191e-01     -7.536281e-02     -1.144926e-01     
-8.150247e-02     -1.560208e-01     -1.713404e-01     -1.750036e-01     -2.665914e-01     
-7.891721e-02     1.258007e-02     -3.926417e-02     -4.403614e-02     -1.823315e-01     
-1.314071e-01     -3.766535e-02     3.336094e-02     -2.495125e-01     -8.291304e-02     
-3.390820e-01     -2.236478e-01     -2.781188e-01     -3.451845e-01     -1.638307e-01     
-2.520787e-01     -2.773513e-01     -2.534519e-01     -2.467384e-01     -2.489276e-01     
-3.333888e-01     -3.300617e-01     -3.651423e-01     -3.286317e-01     -1.529690e-01     
-2.108879e-01     -1.635886e-01     -2.411804e-01     -1.699825e-01     -2.511621e-01     
-2.319624e-01     -2.208904e-01     -1.452995e-01     -1.593557e-01     -3.342696e-01     
-3.023907e-01     -5.066427e-02     -1.039839e-01     -1.193353e-01     -2.640091e-01     
-6.724497e-02     9.874390e-03     -5.282582e-02     -1.714648e-01     -2.571945e-01     
-2.536128e-01     -1.536799e-01     -1.358555e-01     -8.880661e-02     -2.373910e-01     
-2.057946e-01     -3.402914e-01     -2.083476e-01     -9.710986e-02     -1.566228e-01     
-3.154551e-01     -2.305381e-01     -2.683836e-01     -1.912195e-01     -1.264903e-01     
-1.624526e-01     -3.722202e-01     -7.657097e-02     -4.746935e-02     -1.710265e-01     
-1.857108e-01     -1.137563e-01     -3.342174e-02     -5.257005e-02     -2.919534e-02     
-9.002747e-02     -3.452024e-02     -7.257091e-02     -3.198280e-02     2.382818e-02     
-1.453962e-01     -5.773290e-02     -1.528913e-01     -1.097965e-01     -1.850126e-01     
-9.718431e-02     -1.549413e-01     -2.489746e-01     -1.838818e-01     -2.303467e-01     
-3.381193e-01     -3.868051e-02     -1.133932e-01     -3.471793e-01     

0      
0      0      0      0      0      0      0      0      0      0      
0      0      0      0      0      0      0      0      0      0      
0      0      0      0      0      0      0      0      0      0      
0      0      0      0      0      0      0      0      0      0      
0      0      0      0      0      0      0      0      0      0      
0      0      0      0      0      0      0      0      0      0      
0      0      0      0      0      0      0      0      0      0      
0      0      0      0      0      0      0      0      0      0      
0      0      0      0      0      0      0      0      0      0      
0      0      0      0      0      0      0      0      0      0      
0      0      0      0      0      0      0      0      0      0      
0      0      0      0      0      0      0      0      0      0      
0      0      0      0      0      0      0      0      0      0      
0      0      0      0      0      0      0      0      0      0      