Title = " tecplot out file" 
variables = "x", "y", "z", "velX", "velY", "velZ","density","pressure","viscosity","temperature", "collisionFrequency",
Zone T = "nmesh0" N = 121 E = 100 DATAPACKING = BLOCK, VARLOCATION = ([4-11]=CELLCENTERED),  ZONETYPE=FEQUADRILATERAL 
0.0    
0.0    
0.1    
0.1    
0.0    

0.1    
0.0    
0.1    
0.0    
0.1    

0.0    
0.1    
0.0    
0.1    
0.0    

0.1    
0.0    
0.1    
0.0    
0.1    

0.0    
0.1    
0.2    
0.2    
0.2    

0.2    
0.2    
0.2    
0.2    
0.2    

0.2    
0.2    
0.2    
0.3    
0.3    

0.3    
0.3    
0.3    
0.3    
0.3    

0.3    
0.3    
0.3    
0.3    
0.4    

0.4    
0.4    
0.4    
0.4    
0.4    

0.4    
0.4    
0.4    
0.4    
0.4    

0.5    
0.5    
0.5    
0.5    
0.5    

0.5    
0.5    
0.5    
0.5    
0.5    

0.5    
0.6    
0.6    
0.6    
0.6    

0.6    
0.6    
0.6    
0.6    
0.6    

0.6    
0.6    
0.7    
0.7    
0.7    

0.7    
0.7    
0.7    
0.7    
0.7    

0.7    
0.7    
0.7    
0.8    
0.8    

0.8    
0.8    
0.8    
0.8    
0.8    

0.8    
0.8    
0.8    
0.8    
0.9    

0.9    
0.9    
0.9    
0.9    
0.9    

0.9    
0.9    
0.9    
0.9    
0.9    

1.0    
1.0    
1.0    
1.0    
1.0    

1.0    
1.0    
1.0    
1.0    
1.0    

1.0    
1.0    
0.9    
1.0    
0.9    
0.8    

0.8    
0.7    
0.7    
0.6    
0.6    

0.5    
0.5    
0.4    
0.4    
0.3    

0.3    
0.2    
0.2    
0.1    
0.1    

0.0    
0.0    
1.0    
0.9    
0.8    

0.7    
0.6    
0.5    
0.4    
0.3    

0.2    
0.1    
0.0    
1.0    
0.9    

0.8    
0.7    
0.6    
0.5    
0.4    

0.3    
0.2    
0.1    
0.0    
1.0    

0.9    
0.8    
0.7    
0.6    
0.5    

0.4    
0.3    
0.2    
0.1    
0.0    

1.0    
0.9    
0.8    
0.7    
0.6    

0.5    
0.4    
0.3    
0.2    
0.1    

0.0    
1.0    
0.9    
0.8    
0.7    

0.6    
0.5    
0.4    
0.3    
0.2    

0.1    
0.0    
1.0    
0.9    
0.8    

0.7    
0.6    
0.5    
0.4    
0.3    

0.2    
0.1    
0.0    
1.0    
0.9    

0.8    
0.7    
0.6    
0.5    
0.4    

0.3    
0.2    
0.1    
0.0    
1.0    

0.9    
0.8    
0.7    
0.6    
0.5    

0.4    
0.3    
0.2    
0.1    
0.0    

0.9    
1.0    
0.8    
0.7    
0.6    

0.5    
0.4    
0.3    
0.2    
0.1    

0.0    
0.0    0.0    0.0    0.0    0.0    
0.0    0.0    0.0    0.0    0.0    
0.0    0.0    0.0    0.0    0.0    
0.0    0.0    0.0    0.0    0.0    
0.0    0.0    0.0    0.0    0.0    
0.0    0.0    0.0    0.0    0.0    
0.0    0.0    0.0    0.0    0.0    
0.0    0.0    0.0    0.0    0.0    
0.0    0.0    0.0    0.0    0.0    
0.0    0.0    0.0    0.0    0.0    
0.0    0.0    0.0    0.0    0.0    
0.0    0.0    0.0    0.0    0.0    
0.0    0.0    0.0    0.0    0.0    
0.0    0.0    0.0    0.0    0.0    
0.0    0.0    0.0    0.0    0.0    
0.0    0.0    0.0    0.0    0.0    
0.0    0.0    0.0    0.0    0.0    
0.0    0.0    0.0    0.0    0.0    
0.0    0.0    0.0    0.0    0.0    
0.0    0.0    0.0    0.0    0.0    
0.0    0.0    0.0    0.0    0.0    
0.0    0.0    0.0    0.0    0.0    
0.0    0.0    0.0    0.0    0.0    
0.0    0.0    0.0    0.0    0.0    
0.0    
0.0257136399523    0.0729051887338    0.0732096038853    0.0732112283128    0.0732112362308    
0.0732112362282    0.0732112283095    0.0732096037044    0.0729051888026    0.0257136384091    
0.000675134105638    0.0019672850159    0.00197676266183    0.00197682410804    0.0019768244462    
0.00197682387997    0.00197682354809    0.00197676338593    0.00196728098296    0.000675130649256    
6.47527017169e-06    1.77015663473e-05    1.77855585591e-05    1.77860466623e-05    1.77860481288e-05    
1.77860440729e-05    1.77860149529e-05    1.77821943641e-05    1.7709338979e-05    6.47331251268e-06    
4.56537839568e-08    1.10864135843e-07    1.14117770824e-07    1.12864052354e-07    1.14059844666e-07    
1.122946588e-07    1.13460971315e-07    1.09312128834e-07    1.15271193634e-07    4.43135024218e-08    
1.60052286738e-09    -2.99831402971e-10    6.63330251043e-10    5.81788826747e-10    5.95997066832e-10    
5.76087256546e-10    5.68862375037e-10    -1.99994767801e-09    2.52747087158e-09    -2.11596251195e-11    
1.09584547681e-09    -1.49650357708e-09    2.67656644146e-11    -3.3663194424e-11    -3.49373325943e-11    
-6.03036765692e-10    -6.3111584234e-10    -2.85654342864e-09    1.65577627767e-09    -2.49723296755e-10    
-4.29632806556e-08    -1.13900357618e-07    -1.1341450791e-07    -1.13484546775e-07    -1.13485761668e-07    
-1.13488768366e-07    -1.13511312835e-07    -1.16053465265e-07    -1.11011884098e-07    -4.45512608124e-08    
-6.47223804769e-06    -1.77082779942e-05    -1.77832436448e-05    -1.7783897382e-05    -1.77839025679e-05    
-1.77842755691e-05    -1.77842988057e-05    -1.77859690669e-05    -1.76984140027e-05    -6.47102877442e-06    
-0.000675128460132    -0.00196728061116    -0.00197676221851    -0.00197682472352    -0.00197682403366    
-0.00197682506257    -0.00197682371649    -0.0019767655892    -0.00196728456098    -0.00067513333286    
-0.0257136385434    -0.0729051896731    -0.0732096048773    -0.0732112290346    -0.0732112372539    
-0.0732112369537    -0.0732112293501    -0.0732096062207    -0.0729051886414    -0.0257136399523    

-0.0253310316935    -0.000672955473386    -6.45825538486e-06    -4.5587022461e-08    -1.62604177407e-09    
-1.1276854505e-09    4.28363311284e-08    6.45503603675e-06    0.000672949411082    0.0253310304733    
-0.0729047076433    -0.00196729438286    -1.77015463999e-05    -1.10810416969e-07    1.55650778194e-09    
1.52606592644e-09    1.13910541424e-07    1.77078436018e-05    0.00196728958818    0.0729047093815    
-0.0732096013272    -0.0019767626614    -1.77873667903e-05    -1.141603687e-07    -1.26212527637e-09    
-5.39713928401e-11    1.12805527836e-07    1.77820276973e-05    0.00197676394299    0.0732096024268    
-0.0732112283066    -0.00197682405386    -1.7786035434e-05    -1.12810013306e-07    6.39660460888e-10    
6.34484310948e-11    1.13458320372e-07    1.77834405797e-05    0.00197682473059    0.0732112299474    
-0.0732112362336    -0.00197682384031    -1.77873018297e-05    -1.13547692568e-07    -6.40363216036e-10    
5.6248268063e-10    1.13433215407e-07    1.77834952252e-05    0.00197682428049    0.0732112374134    
-0.0732112362336    -0.00197682383634    -1.77860273024e-05    -1.12251361229e-07    6.50898980309e-10    
6.22209273912e-10    1.13471572746e-07    1.77842738483e-05    0.00197682505623    0.0732112378787    
-0.0732112283028    -0.00197682351459    -1.77872776275e-05    -1.1352095714e-07    -6.19280290496e-10    
5.91153928716e-10    1.13456290075e-07    1.77835233686e-05    0.00197682396406    0.0732112294974    
-0.0732096012469    -0.00197676453456    -1.77836287618e-05    -1.1042438928e-07    2.47360028666e-09    
2.86302872531e-09    1.15713760956e-07    1.77859643212e-05    0.00197676550201    0.0732096045321    
-0.0729047075378    -0.00196729151184    -1.77056696501e-05    -1.15240244813e-07    -2.42273172156e-09    
-1.66136293052e-09    1.11116155317e-07    1.76981422579e-05    0.00196729412204    0.0729047075015    
-0.0253310301587    -0.000672950848041    -6.45664315377e-06    -4.3668269175e-08    1.16920648163e-10    
7.98821637595e-10    4.4550885652e-08    6.45500178642e-06    0.000672954116564    0.0253310316936    

1.60264458438e-17    2.56041822029e-17    1.52627248102e-17    4.06224025407e-17    3.11547630386e-17    
1.78376379572e-17    9.43236107965e-18    3.21539268891e-17    4.40651702883e-17    3.02111200002e-17    
1.22848814714e-17    8.6942356567e-18    3.3713263222e-17    1.23898311779e-17    5.06629692422e-17    
3.89800986946e-17    3.27471263583e-17    3.56551513843e-17    2.89882931543e-17    1.64589253908e-17    
1.58456322464e-17    4.09256496384e-17    3.5581432872e-17    4.06210340223e-17    2.04592295991e-17    
3.44989212071e-17    2.39147102312e-17    3.35426954314e-17    4.99753792257e-17    4.58954187848e-17    
2.07781024147e-17    2.68775398306e-17    3.29036791331e-17    2.6744661935e-17    2.57978084104e-17    
4.59548154331e-17    3.64704484316e-17    4.39923764163e-17    3.33533216667e-17    5.64390851212e-17    
1.06353289624e-17    3.51775192649e-17    3.20521557825e-17    3.37159801361e-17    2.74464619677e-17    
3.91426150943e-17    5.40315494978e-17    3.3112211631e-17    7.46017137633e-18    3.0195951036e-17    
3.72137873325e-17    3.06875795955e-17    4.28345300568e-17    4.38886242946e-17    1.91232849715e-17    
4.35636191697e-17    2.92162542968e-17    3.10370128983e-17    2.36060499454e-17    6.27138054529e-18    
2.63190737774e-17    2.43023315572e-17    3.77329924629e-17    1.67759245205e-17    2.211962248e-17    
5.13003623497e-17    2.16491423323e-17    2.45155923253e-17    3.37144217542e-17    1.50507769111e-18    
1.15447680465e-17    3.0267701499e-17    1.78575291749e-17    1.95320487684e-17    2.85527263328e-17    
3.1027564251e-17    1.45190471272e-17    3.77714530736e-17    3.30082259469e-17    3.71539955794e-17    
2.05774957602e-17    2.53032291821e-17    2.0281938101e-17    3.17458044824e-17    4.74549998417e-17    
2.16666021774e-17    4.86531743011e-17    5.2402928268e-17    4.17611785857e-17    1.84341433326e-17    
2.93333057266e-17    3.21204477673e-17    1.39584410256e-17    2.57128406649e-17    2.83593948394e-17    
2.54828878775e-17    -3.23274872974e-19    1.65551230767e-17    -1.07985686389e-18    2.39157998415e-17    

0.924789682439    0.907018007812    0.906177429731    0.906170001775    0.906169956109    
0.906169956116    0.906170001786    0.906177430587    0.907018007059    0.92478968837    
0.907022255471    1.00161224019    1.00081740221    1.00080809082    1.00080803197    
1.00080803231    1.00080809119    1.00081740381    1.00161223708    0.907022252207    
0.906177453542    1.00081740222    1.00001903979    1.00000969424    1.00000963517    
1.00000963517    1.00000969423    1.00001903902    1.00081740486    0.906177451285    
0.906170001852    1.00080809082    1.0000096942    1.00000034807    1.00000028931    
1.00000028933    1.00000034871    1.00000969314    1.00080809147    0.906169999318    
0.906169956079    1.00080803229    1.00000963549    1.00000028968    1.00000023061    
1.00000023061    1.00000028967    1.00000963504    1.00080803294    0.906169954411    
0.906169956079    1.00080803229    1.00000963514    1.00000028932    1.00000023025    
1.00000023059    1.00000028965    1.00000963472    1.0008080326    0.906169953538    
0.906170001858    1.00080809117    1.00000969455    1.00000034874    1.00000028967    
1.00000028967    1.00000034873    1.00000969411    1.00080809178    0.906170000155    
0.906177452952    1.00081740427    1.00001903912    1.00000969358    1.00000963451    
1.00000963471    1.00000969377    1.00001903857    1.00081740208    0.906177447933    
0.907022255679    1.00161223753    1.00081740338    1.00080809146    1.00080803305    
1.0008080326    1.00080809189    1.00081740214    1.00161224094    0.907022254954    
0.924789688875    0.907018005553    0.906177428519    0.906170000945    0.906169954712    
0.906169955275    0.906170000346    0.906177426592    0.907018006644    0.924789682439    

1.74334796102    1.52928233501    1.52633551193    1.52631194136    1.52631179393    
1.52631179396    1.52631194139    1.52633551462    1.52928232891    1.74334797721    
1.52929222096    1.01112675112    1.00562264558    1.00558180572    1.00558155778    
1.00558156163    1.00558180969    1.00562265708    1.01112672852    1.5292922057    
1.52633557276    1.00562264559    1.00009617571    1.00005517837    1.00005492945    
1.00005492946    1.00005517827    1.00009616512    1.00562266502    1.52633556554    
1.52631194156    1.00558180572    1.00005517818    1.00001417593    1.00001393074    
1.00001393084    1.00001418342    1.00005516599    1.0055818147    1.5263119325    
1.52631179385    1.00558156154    1.00005493322    1.00001393469    1.00001368581    
1.00001368578    1.00001393465    1.00005492426    1.00558156846    1.52631178743    
1.52631179385    1.00558156158    1.00005492932    1.00001393079    1.00001368187    
1.0000136857    1.00001393456    1.00005492254    1.00558156667    1.52631178475    
1.52631194159    1.00558180962    1.00005518204    1.00001418356    1.00001393463    
1.00001393464    1.00001418346    1.00005517312    1.00558181629    1.52631193503    
1.52633557196    1.00562265986    1.00009616609    1.00005516876    1.00005491985    
1.0000549225    1.00005517135    1.00009615817    1.00562264381    1.52633555075    
1.52929221784    1.01112673129    1.00562265717    1.00558181464    1.00558156905    
1.00558156669    1.00558181688    1.00562264476    1.01112676348    1.52929221908    
1.7433479785    1.52928232284    1.52633550683    1.52631193751    1.52631178835    
1.52631179007    1.52631193564    1.52633549642    1.52928233128    1.74334796102    

3.76064358372e-07    3.43559537656e-07    3.43280918826e-07    3.43278904123e-07    3.43278891279e-07    
3.43278891281e-07    3.43278904127e-07    3.43280919054e-07    3.43559536777e-07    3.76064359247e-07    
3.4356003337e-07    2.26757533158e-07    2.25902398049e-07    2.2589666926e-07    2.25896634907e-07    
2.25896635544e-07    2.25896669915e-07    2.25902399849e-07    2.26757529624e-07    3.43560031594e-07    
3.43280922601e-07    2.25902398049e-07    2.25041707975e-07    2.25035938981e-07    2.25035904378e-07    
2.25035904381e-07    2.25035938966e-07    2.25041706185e-07    2.25902401103e-07    3.43280921979e-07    
3.43278904137e-07    2.25896669261e-07    2.25035938955e-07    2.2503016903e-07    2.25030135048e-07    
2.25030135062e-07    2.25030170278e-07    2.25035936927e-07    2.25896670776e-07    3.43278903264e-07    
3.43278891273e-07    2.25896635531e-07    2.25035905007e-07    2.25030135702e-07    2.25030101104e-07    
2.250301011e-07    2.25030135695e-07    2.25035903455e-07    2.25896636672e-07    3.43278890615e-07    
3.43278891273e-07    2.25896635538e-07    2.25035904361e-07    2.25030135056e-07    2.25030100452e-07    
2.25030101089e-07    2.25030135683e-07    2.25035903202e-07    2.25896636408e-07    3.43278890395e-07    
3.43278904141e-07    2.25896669906e-07    2.25035939593e-07    2.25030170297e-07    2.25030135693e-07    
2.25030135694e-07    2.25030170283e-07    2.2503593805e-07    2.25896671009e-07    3.43278903468e-07    
3.43280922637e-07    2.25902400272e-07    2.25041706344e-07    2.25035937351e-07    2.25035902749e-07    
2.25035903196e-07    2.25035937787e-07    2.25041705001e-07    2.25902397752e-07    3.43280920313e-07    
3.43560032737e-07    2.26757530044e-07    2.25902399944e-07    2.25896670766e-07    2.25896636759e-07    
2.2589663641e-07    2.25896671096e-07    2.25902397914e-07    2.26757535267e-07    3.43560033186e-07    
3.76064359305e-07    3.43559536135e-07    3.4328091827e-07    3.43278903678e-07    3.4327889069e-07    
3.43278890832e-07    3.43278903521e-07    3.43280916965e-07    3.43559537336e-07    3.76064358372e-07    

1.88512912085    1.68605509685    1.684367169    1.6843549647    1.6843548869    
1.68435488691    1.68435496472    1.68436717038    1.68605509153    1.88512912626    
1.68605810027    1.00949919594    1.00480131876    1.00476986042    1.00476967177    
1.00476967527    1.00476986401    1.00480132864    1.00949917651    1.68605808951    
1.68436719187    1.00480131876    1.00007713445    1.00004548368    1.00004529384    
1.00004529386    1.0000454836    1.00007712463    1.00480133553    1.6843671881    
1.68435496479    1.00476986042    1.00004548354    1.00001382786    1.00001364142    
1.0000136415    1.0000138347    1.00004547242    1.00476986874    1.6843549595    
1.68435488686    1.0047696752    1.00004529729    1.00001364501    1.00001345519    
1.00001345517    1.00001364497    1.00004528878    1.00476968147    1.68435488287    
1.68435488686    1.00476967524    1.00004529375    1.00001364147    1.00001345162    
1.00001345511    1.00001364491    1.00004528739    1.00476968002    1.68435488154    
1.68435496481    1.00476986396    1.00004548704    1.00001383481    1.00001364496    
1.00001364497    1.00001383473    1.00004547857    1.00476987002    1.68435496074    
1.68436719209    1.00480133097    1.0000771255    1.00004547474    1.0000452849    
1.00004528736    1.00004547714    1.00007711813    1.00480131713    1.684367178    
1.68605809644    1.00949917882    1.00480132916    1.00476986868    1.00476968194    
1.00476968003    1.0047698705    1.00480131802    1.00949920753    1.68605809916    
1.88512912662    1.68605508764    1.68436716563    1.684354962    1.68435488333    
1.68435488419    1.68435496105    1.68436715772    1.68605509491    1.88512912085    

1293.05265416    1241.59504071    1240.20835174    1240.19647838    1240.19640499    
1240.196405    1240.19647839    1240.2083531    1241.59503893    1293.05266316    
1241.60127545    1243.76457684    1241.67663908    1241.65770062    1241.6575833    
1241.65758454    1241.65770191    1241.67664338    1243.76456843    1241.60126947    
1240.20838752    1241.67663909    1239.575712    1239.55667389    1239.55655595    
1239.55655596    1239.55667385    1239.57570873    1241.67664629    1240.20838391    
1240.19647849    1241.65770062    1239.5566738    1239.53763375    1239.53751702    
1239.53751706    1239.53763617    1239.55666986    1241.65770337    1240.19647428    
1240.19640494    1241.6575845    1239.55655717    1239.53751831    1239.53740039    
1239.53740039    1239.5375183    1239.55655461    1241.65758678    1240.1964021    
1240.19640494    1241.65758452    1239.55655589    1239.53751704    1239.5373991    
1239.53740035    1239.53751826    1239.55655387    1241.65758602    1240.19640072    
1240.1964785    1241.65770188    1239.55667506    1239.53763623    1239.53751829    
1239.5375183    1239.53763619    1239.55667252    1241.65770406    1240.1964756    
1240.20838675    1241.67664449    1239.57570906    1239.55667096    1239.55655303    
1239.55655386    1239.55667176    1239.57570665    1241.67663852    1240.20837791    
1241.6012752    1243.76456953    1241.67664297    1241.65770335    1241.65758703    
1241.65758603    1241.65770431    1241.67663881    1243.76458048    1241.60127458    
1293.05266391    1241.59503633    1240.20834961    1240.19647686    1240.19640258    
1240.19640347    1240.19647591    1240.20834586    1241.59503884    1293.05265416    

2     4     3     1     4     2     5     6     6     5     7     8     8     7     9     10     10     9     11     12     12     11     13     14     14     13     15     16     16     15     17     18     18     17     19     20     20     19     21     22     3     4     24     23     4     6     25     24     6     8     26     25     8     10     27     26     10     12     28     27     12     14     29     28     14     16     30     29     16     18     31     30     18     20     32     31     20     22     33     32     23     24     35     34     24     25     36     35     25     26     37     36     26     27     38     37     27     28     39     38     28     29     40     39     29     30     41     40     30     31     42     41     31     32     43     42     32     33     44     43     34     35     46     45     35     36     47     46     36     37     48     47     37     38     49     48     38     39     50     49     39     40     51     50     40     41     52     51     41     42     53     52     42     43     54     53     43     44     55     54     45     46     57     56     46     47     58     57     47     48     59     58     48     49     60     59     49     50     61     60     50     51     62     61     51     52     63     62     52     53     64     63     53     54     65     64     54     55     66     65     56     57     68     67     57     58     69     68     58     59     70     69     59     60     71     70     60     61     72     71     61     62     73     72     62     63     74     73     63     64     75     74     64     65     76     75     65     66     77     76     67     68     79     78     68     69     80     79     69     70     81     80     70     71     82     81     71     72     83     82     72     73     84     83     73     74     85     84     74     75     86     85     75     76     87     86     76     77     88     87     78     79     90     89     79     80     91     90     80     81     92     91     81     82     93     92     82     83     94     93     83     84     95     94     84     85     96     95     85     86     97     96     86     87     98     97     87     88     99     98     89     90     101     100     90     91     102     101     91     92     103     102     92     93     104     103     93     94     105     104     94     95     106     105     95     96     107     106     96     97     108     107     97     98     109     108     98     99     110     109     100     101     111     112     101     102     113     111     102     103     114     113     103     104     115     114     104     105     116     115     105     106     117     116     106     107     118     117     107     108     119     118     108     109     120     119     109     110     121     120     

