Title = " tecplot out file" 
variables = "x", "y", "z", "velX", "velY", "velZ","density","pressure","viscosity","temperature", "collisionFrequency",
Zone T = "nmesh0" N = 121 E = 100 DATAPACKING = BLOCK, VARLOCATION = ([4-11]=CELLCENTERED),  ZONETYPE=FEQUADRILATERAL 
0.0    
0.0    
0.1    
0.1    
0.0    

0.1    
0.0    
0.1    
0.0    
0.1    

0.0    
0.1    
0.0    
0.1    
0.0    

0.1    
0.0    
0.1    
0.0    
0.1    

0.0    
0.1    
0.2    
0.2    
0.2    

0.2    
0.2    
0.2    
0.2    
0.2    

0.2    
0.2    
0.2    
0.3    
0.3    

0.3    
0.3    
0.3    
0.3    
0.3    

0.3    
0.3    
0.3    
0.3    
0.4    

0.4    
0.4    
0.4    
0.4    
0.4    

0.4    
0.4    
0.4    
0.4    
0.4    

0.5    
0.5    
0.5    
0.5    
0.5    

0.5    
0.5    
0.5    
0.5    
0.5    

0.5    
0.6    
0.6    
0.6    
0.6    

0.6    
0.6    
0.6    
0.6    
0.6    

0.6    
0.6    
0.7    
0.7    
0.7    

0.7    
0.7    
0.7    
0.7    
0.7    

0.7    
0.7    
0.7    
0.8    
0.8    

0.8    
0.8    
0.8    
0.8    
0.8    

0.8    
0.8    
0.8    
0.8    
0.9    

0.9    
0.9    
0.9    
0.9    
0.9    

0.9    
0.9    
0.9    
0.9    
0.9    

1.0    
1.0    
1.0    
1.0    
1.0    

1.0    
1.0    
1.0    
1.0    
1.0    

1.0    
1.0    
0.9    
1.0    
0.9    
0.8    

0.8    
0.7    
0.7    
0.6    
0.6    

0.5    
0.5    
0.4    
0.4    
0.3    

0.3    
0.2    
0.2    
0.1    
0.1    

0.0    
0.0    
1.0    
0.9    
0.8    

0.7    
0.6    
0.5    
0.4    
0.3    

0.2    
0.1    
0.0    
1.0    
0.9    

0.8    
0.7    
0.6    
0.5    
0.4    

0.3    
0.2    
0.1    
0.0    
1.0    

0.9    
0.8    
0.7    
0.6    
0.5    

0.4    
0.3    
0.2    
0.1    
0.0    

1.0    
0.9    
0.8    
0.7    
0.6    

0.5    
0.4    
0.3    
0.2    
0.1    

0.0    
1.0    
0.9    
0.8    
0.7    

0.6    
0.5    
0.4    
0.3    
0.2    

0.1    
0.0    
1.0    
0.9    
0.8    

0.7    
0.6    
0.5    
0.4    
0.3    

0.2    
0.1    
0.0    
1.0    
0.9    

0.8    
0.7    
0.6    
0.5    
0.4    

0.3    
0.2    
0.1    
0.0    
1.0    

0.9    
0.8    
0.7    
0.6    
0.5    

0.4    
0.3    
0.2    
0.1    
0.0    

0.9    
1.0    
0.8    
0.7    
0.6    

0.5    
0.4    
0.3    
0.2    
0.1    

0.0    
0.0    0.0    0.0    0.0    0.0    
0.0    0.0    0.0    0.0    0.0    
0.0    0.0    0.0    0.0    0.0    
0.0    0.0    0.0    0.0    0.0    
0.0    0.0    0.0    0.0    0.0    
0.0    0.0    0.0    0.0    0.0    
0.0    0.0    0.0    0.0    0.0    
0.0    0.0    0.0    0.0    0.0    
0.0    0.0    0.0    0.0    0.0    
0.0    0.0    0.0    0.0    0.0    
0.0    0.0    0.0    0.0    0.0    
0.0    0.0    0.0    0.0    0.0    
0.0    0.0    0.0    0.0    0.0    
0.0    0.0    0.0    0.0    0.0    
0.0    0.0    0.0    0.0    0.0    
0.0    0.0    0.0    0.0    0.0    
0.0    0.0    0.0    0.0    0.0    
0.0    0.0    0.0    0.0    0.0    
0.0    0.0    0.0    0.0    0.0    
0.0    0.0    0.0    0.0    0.0    
0.0    0.0    0.0    0.0    0.0    
0.0    0.0    0.0    0.0    0.0    
0.0    0.0    0.0    0.0    0.0    
0.0    0.0    0.0    0.0    0.0    
0.0    
0.0388370536784    0.0913119131104    0.0914791312459    0.0914795917146    0.0914795929297    
0.0914795929291    0.0914795917138    0.091479131153    0.0913119130133    0.0388370526559    
0.000414540482497    0.000989156458158    0.000991573599315    0.000991582342232    0.000991582369818    
0.000991582047524    0.000991582021953    0.000991574013769    0.000989154179082    0.000414538306677    
1.99252424445e-06    4.61273526323e-06    4.62493135497e-06    4.62493570906e-06    4.62493539558e-06    
4.62493385365e-06    4.62492567075e-06    4.62303509117e-06    4.61713851186e-06    1.99131229833e-06    
8.11222335882e-09    1.51642733026e-08    1.6757994593e-08    1.60362749053e-08    1.67194669068e-08    
1.57124854139e-08    1.63865101452e-08    1.4047066579e-08    1.76350579394e-08    7.29270086248e-09    
8.45207225677e-10    -4.57544739544e-10    8.36362952768e-11    3.90093917841e-11    4.30880134386e-11    
3.70531278769e-11    3.44855113971e-11    -1.39925651477e-09    1.13558881037e-09    -1.41973597793e-10    
7.98634211987e-10    -5.5575133433e-10    3.12742053373e-10    2.7447804255e-10    2.7402062002e-10    
-4.92598416441e-11    -5.81366775902e-11    -1.31381444088e-09    1.21525358426e-09    -2.22379822524e-11    
-6.47039222906e-09    -1.68735329014e-08    -1.63578234433e-08    -1.63982394348e-08    -1.63986923083e-08    
-1.639982755e-08    -1.64069165535e-08    -1.78337492911e-08    -1.52619642308e-08    -7.44623758653e-09    
-1.99065567144e-06    -4.6165440143e-06    -4.62361395386e-06    -4.62373158677e-06    -4.6237324726e-06    
-4.62394432596e-06    -4.62395249892e-06    -4.62516341176e-06    -4.61097536915e-06    -1.98984162328e-06    
-0.000414536983397    -0.000989153976974    -0.000991573380283    -0.000991582677043    -0.000991582157083    
-0.000991582705248    -0.000991582136487    -0.000991575219715    -0.00098915623092    -0.000414540004104    
-0.0388370527505    -0.0913119135242    -0.091479131846    -0.0914795921496    -0.0914795935467    
-0.0914795933652    -0.0914795923363    -0.0914791326231    -0.0913119129608    -0.0388370536784    

-0.0382614964446    -0.000413176844442    -1.98761846362e-06    -8.11830511492e-09    -8.63468214572e-10    
-8.18740918353e-10    6.43710585444e-09    1.98567101753e-06    0.000413173060734    0.0382614956564    
-0.0913116483274    -0.000989158370834    -4.61270901781e-06    -1.5133683842e-08    1.17342350778e-09    
5.68662836031e-10    1.68809431782e-08    4.61628872668e-06    0.000989155670237    0.0913116492334    
-0.091479130625    -0.000991573575208    -4.62596108717e-06    -1.67766974914e-08    -4.26199522619e-10    
-3.26962928244e-10    1.60124088677e-08    4.62295088909e-06    0.000991574321055    0.0914791312735    
-0.0914795917164    -0.000991582311615    -4.62492627775e-06    -1.60056154156e-08    6.5789732917e-10    
-2.61507660876e-10    1.63863357702e-08    4.6234766064e-06    0.000991582679562    0.0914795927012    
-0.0914795929322    -0.000991582025275    -4.62565042196e-06    -1.64233375545e-08    -7.09475804336e-11    
2.66054101721e-11    1.6368478203e-08    4.62353045507e-06    0.00099158229119    0.0914795936405    
-0.0914795929322    -0.000991582024171    -4.62492272037e-06    -1.56890981587e-08    6.61589673931e-10    
5.50599739738e-11    1.63905137798e-08    4.62394401496e-06    0.000991582703771    0.0914795939184    
-0.0914795917153    -0.000991582001751    -4.62564332847e-06    -1.64147004382e-08    -6.40936884387e-11    
3.58348908126e-11    1.63759334771e-08    4.62354037166e-06    0.000991582270676    0.0914795924285    
-0.0914791305652    -0.000991574635566    -4.62383173065e-06    -1.46677291819e-08    1.68255021335e-09    
1.31580852939e-09    1.76525308994e-08    4.6251620565e-06    0.000991575161235    0.0914791325087    
-0.091311648144    -0.000989156743633    -4.61507422315e-06    -1.76259387846e-08    -1.07773163869e-09    
-1.21675730322e-09    1.53197438313e-08    4.61083814181e-06    0.000989158241039    0.0913116481564    
-0.0382614954473    -0.000413173930453    -1.9866472034e-06    -6.94903482486e-09    1.98191729088e-10    
3.52649441099e-10    7.48920062037e-09    1.98556223743e-06    0.000413175977486    0.0382614964446    

2.17280041483e-17    2.62893847038e-17    2.04483893393e-17    2.24528747694e-17    3.47517527035e-17    
2.03810212345e-17    1.64952091685e-17    2.89621952222e-17    1.82479703526e-17    2.93613852551e-17    
3.71451641218e-17    2.2081113842e-17    2.47349373276e-17    2.85216334895e-17    3.44908252701e-17    
3.81539012104e-17    4.80672376419e-17    3.5655470282e-17    2.49482265523e-17    2.15207289827e-17    
2.64579769243e-17    3.1276022977e-17    4.00186737586e-17    3.37917873872e-17    3.79528375588e-17    
4.66421932016e-17    2.46883535063e-17    2.40524805041e-17    3.5456266445e-17    2.63278722183e-17    
8.93513054856e-18    4.26333510213e-17    2.52993824009e-17    2.45982276819e-17    3.68152289109e-17    
1.69499251097e-17    4.48521577507e-17    3.93231788109e-17    4.9134437011e-17    2.9508642348e-17    
2.87081122725e-18    2.70823283933e-17    2.13254245198e-17    1.91332428272e-17    4.83615667802e-17    
2.12925581305e-17    1.38095249943e-17    3.85340446422e-17    1.4170789386e-17    -3.2153548113e-18    
2.23183245412e-17    3.3109463365e-17    4.01154772522e-17    3.66787584754e-17    2.53446347301e-17    
4.56728116299e-17    1.29085924443e-17    3.28447885128e-17    1.74306212508e-17    3.9638749568e-17    
1.30199924198e-18    2.99570020618e-17    1.22615061163e-17    2.57833651671e-17    3.13645893269e-17    
4.06510981098e-17    2.57381145608e-17    3.0589493399e-17    3.20388381721e-17    1.31906206601e-17    
3.30595981875e-17    2.09852154187e-17    2.77156883177e-17    1.68477278264e-17    4.86434713869e-17    
3.47091107772e-17    2.30013465407e-17    1.7431464602e-17    2.33938223063e-17    1.0243405693e-17    
3.78117418006e-18    1.73987690132e-17    3.05814533887e-17    2.57564666192e-17    2.69278183497e-17    
2.95074556104e-17    3.70681768728e-17    1.33669885146e-17    2.27539609408e-17    2.49933706019e-17    
2.52203262124e-17    3.72876000935e-17    2.40915644821e-17    2.30680084331e-17    1.80880474993e-17    
3.10901246058e-17    1.46700442899e-17    1.89066268408e-17    1.98204541683e-17    2.20277080017e-17    

0.956394253725    0.948349412876    0.94792157482    0.947919512123    0.947919505132    
0.947919505134    0.947919512126    0.947921575265    0.94834941237    0.956394256532    
0.948351756324    1.00085518868    1.00043029241    1.00042795956    1.00042795156    
1.00042795176    1.00042795976    1.00043029336    1.00085518688    0.948351754723    
0.947921581234    1.00043029241    1.00000451737    1.00000218006    1.00000217204    
1.00000217205    1.00000218006    1.00000451691    1.00043029391    0.947921580087    
0.947919512119    1.00042795956    1.00000218004    0.999999842521    0.999999834693    
0.999999834704    0.999999842905    1.00000217943    1.00042795992    0.94791951096    
0.947919505113    1.00042795175    1.00000217223    0.999999834905    0.999999826891    
0.99999982689    0.999999834903    1.00000217196    1.0004279521    0.947919504367    
0.947919505113    1.00042795175    1.00000217203    0.999999834696    0.99999982668    
0.999999826879    0.999999834892    1.00000217178    1.00042795192    0.947919503953    
0.94791951212    1.00042795975    1.00000218025    0.999999842918    0.999999834902    
0.999999834903    0.999999842914    1.00000217998    1.00042796009    0.947919511363    
0.947921580834    1.00043029361    1.00000451697    1.00000217968    1.00000217167    
1.00000217178    1.0000021798    1.00000451667    1.00043029233    0.947921578489    
0.948351756368    1.00085518713    1.00043029307    1.00042795992    1.00042795216    
1.00042795192    1.00042796015    1.00043029235    1.00085518908    0.948351755995    
0.956394256774    0.948349411669    0.947921574294    0.94791951177    0.947919504507    
0.947919504777    0.947919511489    0.947921573377    0.948349412144    0.956394253726    

1.74651988748    1.51421536748    1.51258289187    1.51257598328    1.51257595954    
1.51257595955    1.51257598329    1.51258289337    1.51421536359    1.74651989593    
1.51422084138    1.00551023078    1.00277373554    1.00276286613    1.00276282914    
1.0027628313    1.00276286833    1.00277374196    1.00551021824    1.51422083278    
1.51258290825    1.00277373554    1.00003151572    1.0000206228    1.00002058572    
1.00002058573    1.00002062277    1.00003150969    1.00277374638    1.51258290438    
1.51257598326    1.00276286613    1.0000206227    1.00000972757    1.00000969259    
1.00000969265    1.00000973181    1.00002061589    1.0027628711    1.51257597848    
1.51257595949    1.00276283125    1.00002058784    1.00000969481    1.00000965775    
1.00000965774    1.0000096948    1.0000205828    1.00276283503    1.51257595608    
1.51257595949    1.00276283127    1.00002058564    1.00000969261    1.00000965553    
1.00000965769    1.00000969475    1.00002058187    1.00276283408    1.51257595469    
1.51257598327    1.00276286829    1.00002062488    1.00000973187    1.00000969479    
1.00000969479    1.00000973184    1.00002061986    1.00276287199    1.51257597982    
1.51258290778    1.00277374351    1.00003151028    1.00002061744    1.00002058036    
1.00002058186    1.00002061892    1.00003150594    1.00277373454    1.51258289598    
1.51422083925    1.00551021978    1.00277374202    1.00276287108    1.00276283535    
1.00276283408    1.0027628723    1.00277373501    1.00551023746    1.51422084035    
1.74651989659    1.5142153603    1.51258288917    1.5125759812    1.51257595655    
1.51257595746    1.51257598025    1.51258288306    1.5142153653    1.74651988748    

3.66505511226e-07    3.28733141929e-07    3.28566113489e-07    3.28565477046e-07    3.28565474833e-07    
3.28565474834e-07    3.28565477047e-07    3.28566113628e-07    3.28733141389e-07    3.66505511791e-07    
3.28733446528e-07    2.2587503538e-07    2.25454514947e-07    2.2545296132e-07    2.25452956043e-07    
2.25452956401e-07    2.25452961682e-07    2.25454515944e-07    2.25875033427e-07    3.28733445464e-07    
3.2856611457e-07    2.25454514947e-07    2.25032569615e-07    2.25031010186e-07    2.25031004889e-07    
2.2503100489e-07    2.25031010181e-07    2.25032568602e-07    2.25454516648e-07    3.28566114211e-07    
3.28565477044e-07    2.2545296132e-07    2.25031010172e-07    2.25029450367e-07    2.25029445419e-07    
2.25029445426e-07    2.25029451069e-07    2.25031009041e-07    2.25452962158e-07    3.28565476528e-07    
3.28565474828e-07    2.25452956393e-07    2.2503100524e-07    2.25029445784e-07    2.25029440489e-07    
2.25029440488e-07    2.25029445782e-07    2.25031004372e-07    2.25452957017e-07    3.28565474438e-07    
3.28565474828e-07    2.25452956396e-07    2.25031004877e-07    2.25029445421e-07    2.25029440124e-07    
2.2502944048e-07    2.25029445775e-07    2.25031004235e-07    2.25452956877e-07    3.2856547431e-07    
3.28565477045e-07    2.25452961676e-07    2.25031010532e-07    2.25029451078e-07    2.25029445781e-07    
2.25029445781e-07    2.25029451073e-07    2.25031009666e-07    2.25452962288e-07    3.28565476651e-07    
3.285661146e-07    2.25454516179e-07    2.25032568696e-07    2.25031009277e-07    2.2503100398e-07    
2.25031004233e-07    2.25031009526e-07    2.25032567962e-07    2.25454514781e-07    3.28566113182e-07    
3.2873344614e-07    2.25875033662e-07    2.25454516006e-07    2.25452962155e-07    2.25452957064e-07    
2.25452956877e-07    2.25452962335e-07    2.25454514861e-07    2.25875036523e-07    3.28733446439e-07    
3.66505511828e-07    3.28733141007e-07    3.28566113163e-07    3.28565476779e-07    3.28565474482e-07    
3.28565474565e-07    3.28565476691e-07    3.28566112345e-07    3.28733141752e-07    3.66505511226e-07    

1.8261505448    1.59668508982    1.59568357979    1.59567976388    1.59567975061    
1.59567975061    1.59567976389    1.59568358062    1.59668508658    1.82615054827    
1.59668691631    1.00465106456    1.0023424352    1.00233390776    1.0023338788    
1.00233388076    1.00233390975    1.00234244067    1.00465105384    1.59668690993    
1.59568358627    1.0023424352    1.00002699823    1.0000184427    1.00001841364    
1.00001841364    1.00001844267    1.00002699266    1.00234244454    1.59568358412    
1.59567976386    1.00233390776    1.00001844262    1.00000988505    1.0000098579    
1.00000985794    1.0000098889    1.00001843642    1.00233391236    1.59567976077    
1.59567975058    1.00233388072    1.00001841556    1.00000985991    1.00000983086    
1.00000983085    1.00000985989    1.0000184108    1.00233388414    1.59567974824    
1.59567975058    1.00233388073    1.00001841357    1.00000985792    1.00000982885    
1.00000983081    1.00000985986    1.00001841005    1.00233388337    1.59567974747    
1.59567976387    1.00233390971    1.0000184446    1.00000988895    1.00000985989    
1.00000985989    1.00000988893    1.00001843985    1.00233391307    1.59567976151    
1.59568358645    1.00234244196    1.00002699318    1.00001843771    1.00001840865    
1.00001841004    1.00001843908    1.00002698915    1.00234243428    1.59568357795    
1.59668691399    1.00465105512    1.00234244101    1.00233391234    1.0023338844    
1.00233388338    1.00233391333    1.00234243472    1.00465107084    1.59668691578    
1.8261505485    1.59668508429    1.59568357783    1.59567976228    1.5956797485    
1.595679749    1.59567976175    1.59568357293    1.59668508875    1.8261505448    

1329.19081809    1284.80869106    1284.0759744    1284.07259678    1284.07258528    
1284.07258529    1284.07259679    1284.07597513    1284.80868988    1329.19082247    
1284.81214517    1241.68823749    1240.6186926    1240.61379429    1240.61377756    
1240.61377827    1240.61379502    1240.61869506    1241.68823274    1284.81214203    
1284.07598408    1240.6186926    1239.54590349    1239.54099141    1239.54097463    
1239.54097463    1239.5409914    1239.54590161    1240.61869665    1284.0759822    
1284.07259678    1240.61379429    1239.54099137    1239.53607854    1239.53606245    
1239.53606247    1239.53607993    1239.54098915    1240.61379583    1284.07259473    
1284.07258525    1240.61377825    1239.54097532    1239.53606318    1239.53604641    
1239.5360464    1239.53606317    1239.54097386    1240.61377949    1284.07258389    
1284.07258525    1240.61377825    1239.54097459    1239.53606245    1239.53604567    
1239.53604638    1239.53606315    1239.54097346    1240.61377908    1284.07258321    
1284.07259678    1240.613795    1239.54099209    1239.53607995    1239.53606317    
1239.53606317    1239.53607994    1239.54099064    1240.61379621    1284.07259539    
1284.07598356    1240.61869568    1239.54590182    1239.54098977    1239.54097299    
1239.54097346    1239.54099023    1239.54590049    1240.61869228    1284.07597909    
1284.81214488    1241.68823335    1240.61869479    1240.61379582    1240.61377962    
1240.61377909    1240.61379634    1240.61869242    1241.68823945    1284.81214465    
1329.19082284    1284.80868858    1284.07597339    1284.07259606    1284.07258411    
1284.07258456    1284.0725956    1284.07597139    1284.8086899    1329.19081809    

2     4     3     1     4     2     5     6     6     5     7     8     8     7     9     10     10     9     11     12     12     11     13     14     14     13     15     16     16     15     17     18     18     17     19     20     20     19     21     22     3     4     24     23     4     6     25     24     6     8     26     25     8     10     27     26     10     12     28     27     12     14     29     28     14     16     30     29     16     18     31     30     18     20     32     31     20     22     33     32     23     24     35     34     24     25     36     35     25     26     37     36     26     27     38     37     27     28     39     38     28     29     40     39     29     30     41     40     30     31     42     41     31     32     43     42     32     33     44     43     34     35     46     45     35     36     47     46     36     37     48     47     37     38     49     48     38     39     50     49     39     40     51     50     40     41     52     51     41     42     53     52     42     43     54     53     43     44     55     54     45     46     57     56     46     47     58     57     47     48     59     58     48     49     60     59     49     50     61     60     50     51     62     61     51     52     63     62     52     53     64     63     53     54     65     64     54     55     66     65     56     57     68     67     57     58     69     68     58     59     70     69     59     60     71     70     60     61     72     71     61     62     73     72     62     63     74     73     63     64     75     74     64     65     76     75     65     66     77     76     67     68     79     78     68     69     80     79     69     70     81     80     70     71     82     81     71     72     83     82     72     73     84     83     73     74     85     84     74     75     86     85     75     76     87     86     76     77     88     87     78     79     90     89     79     80     91     90     80     81     92     91     81     82     93     92     82     83     94     93     83     84     95     94     84     85     96     95     85     86     97     96     86     87     98     97     87     88     99     98     89     90     101     100     90     91     102     101     91     92     103     102     92     93     104     103     93     94     105     104     94     95     106     105     95     96     107     106     96     97     108     107     97     98     109     108     98     99     110     109     100     101     111     112     101     102     113     111     102     103     114     113     103     104     115     114     104     105     116     115     105     106     117     116     106     107     118     117     107     108     119     118     108     109     120     119     109     110     121     120     

