Title = " tecplot out file" 
variables = "x", "y", "z", "velX", "velY", "velZ","density","pressure","viscosity","temperature", "collisionFrequency",
Zone T = "nmesh0" N = 121 E = 100 DATAPACKING = BLOCK, VARLOCATION = ([4-11]=CELLCENTERED),  ZONETYPE=FEQUADRILATERAL 
0.0    
0.0    
0.1    
0.1    
0.0    

0.1    
0.0    
0.1    
0.0    
0.1    

0.0    
0.1    
0.0    
0.1    
0.0    

0.1    
0.0    
0.1    
0.0    
0.1    

0.0    
0.1    
0.2    
0.2    
0.2    

0.2    
0.2    
0.2    
0.2    
0.2    

0.2    
0.2    
0.2    
0.3    
0.3    

0.3    
0.3    
0.3    
0.3    
0.3    

0.3    
0.3    
0.3    
0.3    
0.4    

0.4    
0.4    
0.4    
0.4    
0.4    

0.4    
0.4    
0.4    
0.4    
0.4    

0.5    
0.5    
0.5    
0.5    
0.5    

0.5    
0.5    
0.5    
0.5    
0.5    

0.5    
0.6    
0.6    
0.6    
0.6    

0.6    
0.6    
0.6    
0.6    
0.6    

0.6    
0.6    
0.7    
0.7    
0.7    

0.7    
0.7    
0.7    
0.7    
0.7    

0.7    
0.7    
0.7    
0.8    
0.8    

0.8    
0.8    
0.8    
0.8    
0.8    

0.8    
0.8    
0.8    
0.8    
0.9    

0.9    
0.9    
0.9    
0.9    
0.9    

0.9    
0.9    
0.9    
0.9    
0.9    

1.0    
1.0    
1.0    
1.0    
1.0    

1.0    
1.0    
1.0    
1.0    
1.0    

1.0    
1.0    
0.9    
1.0    
0.9    
0.8    

0.8    
0.7    
0.7    
0.6    
0.6    

0.5    
0.5    
0.4    
0.4    
0.3    

0.3    
0.2    
0.2    
0.1    
0.1    

0.0    
0.0    
1.0    
0.9    
0.8    

0.7    
0.6    
0.5    
0.4    
0.3    

0.2    
0.1    
0.0    
1.0    
0.9    

0.8    
0.7    
0.6    
0.5    
0.4    

0.3    
0.2    
0.1    
0.0    
1.0    

0.9    
0.8    
0.7    
0.6    
0.5    

0.4    
0.3    
0.2    
0.1    
0.0    

1.0    
0.9    
0.8    
0.7    
0.6    

0.5    
0.4    
0.3    
0.2    
0.1    

0.0    
1.0    
0.9    
0.8    
0.7    

0.6    
0.5    
0.4    
0.3    
0.2    

0.1    
0.0    
1.0    
0.9    
0.8    

0.7    
0.6    
0.5    
0.4    
0.3    

0.2    
0.1    
0.0    
1.0    
0.9    

0.8    
0.7    
0.6    
0.5    
0.4    

0.3    
0.2    
0.1    
0.0    
1.0    

0.9    
0.8    
0.7    
0.6    
0.5    

0.4    
0.3    
0.2    
0.1    
0.0    

0.9    
1.0    
0.8    
0.7    
0.6    

0.5    
0.4    
0.3    
0.2    
0.1    

0.0    
0.0    0.0    0.0    0.0    0.0    
0.0    0.0    0.0    0.0    0.0    
0.0    0.0    0.0    0.0    0.0    
0.0    0.0    0.0    0.0    0.0    
0.0    0.0    0.0    0.0    0.0    
0.0    0.0    0.0    0.0    0.0    
0.0    0.0    0.0    0.0    0.0    
0.0    0.0    0.0    0.0    0.0    
0.0    0.0    0.0    0.0    0.0    
0.0    0.0    0.0    0.0    0.0    
0.0    0.0    0.0    0.0    0.0    
0.0    0.0    0.0    0.0    0.0    
0.0    0.0    0.0    0.0    0.0    
0.0    0.0    0.0    0.0    0.0    
0.0    0.0    0.0    0.0    0.0    
0.0    0.0    0.0    0.0    0.0    
0.0    0.0    0.0    0.0    0.0    
0.0    0.0    0.0    0.0    0.0    
0.0    0.0    0.0    0.0    0.0    
0.0    0.0    0.0    0.0    0.0    
0.0    0.0    0.0    0.0    0.0    
0.0    0.0    0.0    0.0    0.0    
0.0    0.0    0.0    0.0    0.0    
0.0    0.0    0.0    0.0    0.0    
0.0    
0.00514771761673    0.0296937054755    0.0301633954153    0.030170380654    0.0301704716675    
0.0301704716527    0.0301703806361    0.0301633950906    0.0296937062444    0.00514771629642    
0.000861481715678    0.00514209076286    0.00521497283188    0.00521609392062    0.00521610799535    
0.00521610697475    0.00521609291788    0.00521497393989    0.00514208371443    0.000861477973659    
2.44037690962e-05    0.000126928558458    0.000128500462021    0.000128524132312    0.000128524418384    
0.000128524402305    0.000128523998348    0.000128494308136    0.000126942487457    2.44017014014e-05    
4.49805669494e-07    1.97532918077e-06    2.00248586684e-06    2.00061049777e-06    2.00273917091e-06    
1.99958342851e-06    2.00158743653e-06    1.9935897403e-06    1.98363057578e-06    4.48263270205e-07    
8.05990277376e-09    2.26295661328e-08    2.47126114581e-08    2.45285432753e-08    2.45996174631e-08    
2.45012954318e-08    2.44855157243e-08    1.96086215675e-08    2.79111481502e-08    6.17152996162e-09    
-4.90742497735e-09    -2.59894853485e-08    -2.34641019657e-08    -2.35613338304e-08    -2.35669183504e-08    
-2.4593257792e-08    -2.47012634506e-08    -2.88164951705e-08    -2.0101466872e-08    -6.46886616086e-09    
-4.46671063938e-07    -1.98103841931e-06    -2.00116865851e-06    -2.00162601283e-06    -2.00163443986e-06    
-2.00164652548e-06    -2.00173209695e-06    -2.0061438631e-06    -1.97544616801e-06    -4.48455081157e-07    
-2.44004400952e-05    -0.000126940398547    -0.000128496268461    -0.000128520111378    -0.000128520415746    
-0.000128521109261    -0.000128520915316    -0.000128501246723    -0.000126922648885    -2.43993013794e-05    
-0.000861475362806    -0.00514208294851    -0.00521497177859    -0.00521609513744    -0.00521610711875    
-0.00521610921077    -0.00521609311605    -0.00521497844964    -0.00514208967546    -0.000861480897718    
-0.00514771637885    -0.0296937074065    -0.0301633966274    -0.0301703815488    -0.0301704729216    
-0.0301704725648    -0.0301703819526    -0.030163398441    -0.0296937058168    -0.00514771761822    

-0.00506904710487    -0.000859707129752    -2.43488904707e-05    -4.4887908177e-07    -8.06909192845e-09    
4.85642303185e-09    4.456776621e-07    2.43451097447e-05    0.000859700446325    0.005069046023    
-0.0296931206032    -0.00514215373204    -0.000126929040479    -1.97523022004e-06    -2.03635705066e-08    
2.60893041476e-08    1.98103514545e-06    0.000126940083223    0.00514214521501    0.0296931234612    
-0.0301633848988    -0.00521497367275    -0.000128503728469    -2.00263225046e-06    -2.57794764433e-08    
2.33944999975e-08    2.00004327369e-06    0.00012849394678    0.00521497577258    0.0301633863203    
-0.0301703805166    -0.00521609381912    -0.000128524137983    -2.00050555743e-06    -2.23375147918e-08    
2.36634153055e-08    2.00153959968e-06    0.000128519256186    0.00521609515774    0.030170382554    
-0.0301704716579    -0.00521610688991    -0.000128526666882    -2.00187420844e-06    -2.4656260535e-08    
2.45084923177e-08    2.00153403301e-06    0.000128519499586    0.00521610757868    0.0301704731316    
-0.0301704716575    -0.0052161068784    -0.000128524386572    -1.99949400317e-06    -2.22896244549e-08    
2.46797990063e-08    2.00160792807e-06    0.00012852109127    0.00521610916312    0.030170473713    
-0.0301703804992    -0.00521609286813    -0.000128526294261    -2.00176831742e-06    -2.45755083115e-08    
2.46182244912e-08    2.0016193105e-06    0.000128519323343    0.00521609359325    0.0301703820197    
-0.0301633848438    -0.00521497687926    -0.00012849701168    -1.99567704642e-06    -1.88186439743e-08    
2.8843327567e-08    2.00545109968e-06    0.000128501224789    0.00521497899671    0.0301633890678    
-0.0296931210678    -0.00514214882859    -0.000126936276003    -1.98348137964e-06    -2.77176243673e-08    
2.00714983428e-08    1.97563667798e-06    0.000126922424069    0.0051421531006    0.029693120854    
-0.00506904576498    -0.000859702178443    -2.43469942977e-05    -4.46649777007e-07    -6.03592717634e-09    
7.11195243988e-09    4.47620512769e-07    2.4345370776e-05    0.000859705803554    0.00506904710634    

2.18060054222e-17    2.77677507022e-17    2.72555934506e-17    2.87208512619e-17    2.70554791527e-17    
3.22111213015e-17    1.97115380583e-17    2.62130001094e-17    3.4446750443e-17    3.02998521821e-17    
1.29201497417e-17    2.63665630121e-17    4.38722822721e-17    2.75317890505e-17    1.56963238382e-17    
3.16308355384e-17    3.52209013831e-17    3.90449894816e-17    4.35455780038e-17    3.37587337008e-17    
2.57691895484e-17    2.00551452358e-17    3.28268141227e-17    3.40282047107e-17    3.11235003134e-17    
5.53116097468e-17    3.65950216002e-17    2.20896543256e-17    3.45712502395e-17    3.74500903742e-17    
1.82987669319e-17    4.01067151843e-17    3.16087384653e-17    3.93270950206e-17    4.57424031518e-17    
4.30423577454e-17    3.71241650299e-17    4.21750899875e-17    4.86547483006e-17    2.78328717143e-17    
1.45868424455e-17    4.12568253244e-17    3.01271164456e-17    4.88000497737e-17    2.90883590587e-17    
3.7546581064e-17    3.02693467753e-17    3.52585686785e-17    4.41311062827e-17    2.97367091667e-17    
1.89582830288e-17    4.32253522672e-17    3.65026572492e-17    3.73364104599e-17    5.39229283974e-17    
3.25053873746e-17    4.26122987254e-17    4.937346895e-17    3.60626468202e-17    3.7235036214e-17    
2.70378326405e-17    2.79532320422e-17    3.15802021729e-17    3.2228618446e-17    2.90385905605e-17    
2.36134675342e-17    4.11945371539e-17    2.15301056732e-17    4.95294029552e-17    2.57843981196e-17    
2.12226663679e-17    2.33465577347e-17    3.84671855355e-17    4.84187650408e-17    4.59871584434e-17    
2.15858165777e-17    2.78929673065e-17    3.35553739605e-17    3.62588449942e-17    2.53537062608e-17    
2.14940186572e-17    2.77662907803e-17    4.33659124968e-17    4.4715710996e-17    4.11460076243e-17    
3.77027294035e-17    2.61278626396e-17    4.57728264378e-17    4.39544243738e-17    3.55739379303e-17    
2.87612547455e-17    2.97131080592e-17    1.40746397657e-17    1.26350412793e-17    2.14242867235e-17    
1.93827068858e-17    2.55658088522e-17    2.57605099615e-17    1.21718789716e-17    4.42168825443e-17    

0.87716335735    0.824772494117    0.822575317202    0.822531557615    0.822530908136    
0.822530908194    0.8225315577    0.82257531922    0.824772492498    0.877163372155    
0.824779452623    1.00346137882    1.00182262345    1.00174939407    1.00174817471    
1.00174817527    1.00174939477    1.00182262586    1.0034613737    0.824779443715    
0.822575432669    1.00182262359    1.00015257344    1.00007846314    1.00007723085    
1.00007723088    1.00007846305    1.00015257229    1.00182262816    0.822575427458    
0.822531559064    1.00174939407    1.00007846304    1.00000433742    1.00000310543    
1.0000031055    1.00000433839    1.00007846116    1.0017493953    0.822531552123    
0.822530908126    1.00174817522    1.00007723139    1.00000310606    1.00000187362    
1.00000187362    1.00000310603    1.00007723067    1.00174817651    0.822530903379    
0.822530908127    1.00174817526    1.00007723082    1.0000031055    1.00000187302    
1.00000187358    1.00000310599    1.00007723008    1.00174817582    0.822530901126    
0.822531559125    1.00174939474    1.00007846359    1.00000433849    1.00000310601    
1.00000310603    1.00000433841    1.00007846292    1.00174939578    0.822531554178    
0.822575432202    1.00182262679    1.00015257237    1.00007846196    1.00007722966    
1.00007723004    1.00007846225    1.00015257136    1.00182262332    0.822575418446    
0.824779452786    1.00346137453    1.00182262544    1.00174939523    1.00174817673    
1.00174817587    1.00174939599    1.00182262341    1.00346138042    0.824779451605    
0.877163373451    0.824772488415    0.822575313715    0.822531555087    0.822530904206    
0.822530905589    0.822531553507    0.822575308293    0.824772492166    0.877163357343    

1.73410510188    1.54888817892    1.54291664212    1.54279971645    1.54279792794    
1.5427979281    1.54279971666    1.54291664736    1.54888817056    1.73410513554    
1.54890363092    1.03050346805    1.01563922845    1.01536341983    1.01535945399    
1.01535946107    1.01536342747    1.01563924913    1.03050342631    1.54890360261    
1.54291691665    1.01563922881    1.00059486724    1.0003163901    1.00031239082    
1.00031239093    1.00031638974    1.00059484854    1.01563926461    1.5429169025    
1.54279972013    1.01536341985    1.00031638975    1.00003786872    1.00003387572    
1.00003387602    1.00003788218    1.00031636705    1.01536343699    1.54279970119    
1.54279792794    1.0153594609    1.00031239783    1.00003388309    1.0000298835    
1.00002988345    1.00003388292    1.00031238132    1.01535947449    1.54279791458    
1.54279792794    1.01535946108    1.00031239077    1.00003387602    1.00002987627    
1.00002988331    1.00003388278    1.00031237796    1.01535947075    1.54279790883    
1.5427997203    1.0153634274    1.00031639668    1.00003788257    1.00003388281    
1.00003388291    1.00003788219    1.00031638039    1.01536343985    1.54279970637    
1.54291691586    1.01563925463    1.0005948499    1.00031637217    1.00031237289    
1.00031237777    1.00031637672    1.00059483444    1.01563922548    1.54291687564    
1.54890362737    1.03050343147    1.01563924975    1.01536343674    1.01535947569    
1.01535947088    1.01536344107    1.01563922751    1.03050349286    1.54890362718    
1.73410513843    1.54888815863    1.5429166318    1.54279970878    1.54279791669    
1.54279792023    1.54279970466    1.54291661416    1.54888817278    1.73410510186    

3.90833497681e-07    3.74905194734e-07    3.74542393793e-07    3.74535541906e-07    3.74535429764e-07    
3.74535429773e-07    3.74535541917e-07    3.74542394079e-07    3.7490519369e-07    3.90833498483e-07    
3.74905662175e-07    2.29927229623e-07    2.27538176891e-07    2.27501595168e-07    2.27501099724e-07    
2.27501100904e-07    2.27501596428e-07    2.275381802e-07    2.29927223031e-07    3.74905659906e-07    
3.74542405187e-07    2.27538176931e-07    2.25108250863e-07    2.25071011732e-07    2.25070507502e-07    
2.25070507516e-07    2.25071011682e-07    2.25108247663e-07    2.27538182586e-07    3.74542404325e-07    
3.74535542096e-07    2.27501595173e-07    2.25071011685e-07    2.25033760382e-07    2.25033257138e-07    
2.25033257179e-07    2.25033762658e-07    2.25071007891e-07    2.27501598058e-07    3.74535540932e-07    
3.74535429767e-07    2.27501100882e-07    2.25070508679e-07    2.25033258365e-07    2.25032754001e-07    
2.25032753993e-07    2.2503325834e-07    2.25070505801e-07    2.27501103112e-07    3.74535428891e-07    
3.74535429767e-07    2.27501100907e-07    2.25070507496e-07    2.25033257179e-07    2.25032752794e-07    
2.25032753974e-07    2.25033258321e-07    2.25070505297e-07    2.27501102559e-07    3.74535428592e-07    
3.74535542107e-07    2.2750159642e-07    2.25071012849e-07    2.25033762712e-07    2.25033258324e-07    
2.25033258338e-07    2.25033762656e-07    2.25071010001e-07    2.27501598488e-07    3.74535541191e-07    
3.74542405203e-07    2.27538181027e-07    2.25108247897e-07    2.2507100868e-07    2.2507050445e-07    
2.2507050527e-07    2.25071009455e-07    2.25108245266e-07    2.27538176375e-07    3.74542402369e-07    
3.7490566142e-07    2.29927223809e-07    2.27538180389e-07    2.27501598023e-07    2.27501103289e-07    
2.27501102575e-07    2.2750159867e-07    2.27538176728e-07    2.29927233811e-07    3.74905661819e-07    
3.90833498542e-07    3.74905192854e-07    3.74542393048e-07    3.7453554133e-07    3.74535429e-07    
3.74535429187e-07    3.74535541103e-07    3.7454239158e-07    3.74905194247e-07    3.90833497679e-07    

1.97694658281    1.87795809144    1.87571473378    1.87567237046    1.87567167712    
1.87567167717    1.87567237052    1.87571473555    1.87795808498    1.97694658782    
1.87796098216    1.02694880918    1.01379146834    1.01359025105    1.01358752592    
1.01358753241    1.01359025798    1.01379148655    1.02694877284    1.87796096813    
1.87571480423    1.01379146856    1.00044222633    1.0002379083    1.00023514182    
1.0002351419    1.00023790802    1.00044220877    1.01379149967    1.8757147989    
1.87567237164    1.01359025108    1.00023790804    1.00003353116    1.0000307702    
1.00003077042    1.00003354365    1.00023788722    1.01359026695    1.87567236444    
1.87567167714    1.01358753229    1.00023514828    1.00003077693    1.00002800982    
1.00002800978    1.00003077679    1.00023513249    1.01358754455    1.87567167172    
1.87567167714    1.01358753243    1.00023514178    1.00003077043    1.0000280032    
1.00002800968    1.00003077669    1.00023512972    1.01358754151    1.87567166987    
1.8756723717    1.01359025793    1.00023791443    1.00003354394    1.0000307767    
1.00003077678    1.00003354364    1.0002378988    1.01359026931    1.87567236604    
1.87571480433    1.0137914911    1.00044221005    1.00023789155    1.00023512507    
1.00023512957    1.0002378958    1.00044219562    1.01379146551    1.87571478681    
1.87796097749    1.02694877713    1.01379148759    1.01359026676    1.01358754553    
1.0135875416    1.01359027031    1.01379146745    1.02694883228    1.87796097996    
1.97694658819    1.87795807981    1.87571472918    1.8756723669    1.87567167239    
1.87567167355    1.8756723655    1.8757147201    1.87795808843    1.9769465828    

1237.59328296    1152.3725749    1149.04169595    1148.97563839    1148.97465045    
1148.97465053    1148.97563851    1149.04169897    1152.37257189    1237.59330445    
1152.38263436    1250.12476317    1245.02909261    1244.8911339    1244.88898265    
1244.88898486    1244.89113639    1245.02909986    1250.12474838    1152.38262028    
1149.04186544    1245.02909283    1239.82721227    1239.68723256    1239.68505356    
1239.68505362    1239.68723239    1239.82720672    1245.02910578    1149.04185754    
1148.97564055    1244.89113391    1239.68723238    1239.54721898    1239.54504166    
1239.5450418    1239.54722313    1239.68722515    1244.89113913    1148.97563001    
1148.97465043    1244.88898477    1239.68505575    1239.54504403    1239.5428647    
1239.54286468    1239.54504396    1239.68505115    1244.88898924    1148.97464317    
1148.97465044    1244.88898486    1239.68505352    1239.5450418    1239.54286239    
1239.54286461    1239.54504389    1239.68504976    1244.88898767    1148.97463981    
1148.97564064    1244.89113635    1239.68723456    1239.54722332    1239.54504392    
1239.54504396    1239.54722315    1239.68723006    1244.89114029    1148.97563307    
1149.0418648    1245.02910207    1239.82720712    1239.68722715    1239.68504815    
1239.68504968    1239.68722852    1239.82720246    1245.0290918    1149.04184355    
1152.38263405    1250.1247504    1245.02909958    1244.89113901    1244.88898974    
1244.88898775    1244.89114079    1245.02909235    1250.1247705    1152.38263268    
1237.59330632    1152.37256558    1149.04169054    1148.97563444    1148.97464441    
1148.97464647    1148.97563207    1149.04168191    1152.37257183    1237.59328295    

2     4     3     1     4     2     5     6     6     5     7     8     8     7     9     10     10     9     11     12     12     11     13     14     14     13     15     16     16     15     17     18     18     17     19     20     20     19     21     22     3     4     24     23     4     6     25     24     6     8     26     25     8     10     27     26     10     12     28     27     12     14     29     28     14     16     30     29     16     18     31     30     18     20     32     31     20     22     33     32     23     24     35     34     24     25     36     35     25     26     37     36     26     27     38     37     27     28     39     38     28     29     40     39     29     30     41     40     30     31     42     41     31     32     43     42     32     33     44     43     34     35     46     45     35     36     47     46     36     37     48     47     37     38     49     48     38     39     50     49     39     40     51     50     40     41     52     51     41     42     53     52     42     43     54     53     43     44     55     54     45     46     57     56     46     47     58     57     47     48     59     58     48     49     60     59     49     50     61     60     50     51     62     61     51     52     63     62     52     53     64     63     53     54     65     64     54     55     66     65     56     57     68     67     57     58     69     68     58     59     70     69     59     60     71     70     60     61     72     71     61     62     73     72     62     63     74     73     63     64     75     74     64     65     76     75     65     66     77     76     67     68     79     78     68     69     80     79     69     70     81     80     70     71     82     81     71     72     83     82     72     73     84     83     73     74     85     84     74     75     86     85     75     76     87     86     76     77     88     87     78     79     90     89     79     80     91     90     80     81     92     91     81     82     93     92     82     83     94     93     83     84     95     94     84     85     96     95     85     86     97     96     86     87     98     97     87     88     99     98     89     90     101     100     90     91     102     101     91     92     103     102     92     93     104     103     93     94     105     104     94     95     106     105     95     96     107     106     96     97     108     107     97     98     109     108     98     99     110     109     100     101     111     112     101     102     113     111     102     103     114     113     103     104     115     114     104     105     116     115     105     106     117     116     106     107     118     117     107     108     119     118     108     109     120     119     109     110     121     120     

