Title = " tecplot out file" 
variables = "x", "y", "z", "velX", "velY", "velZ","density","pressure","viscosity","temperature", "collisionFrequency",
Zone T = "nmesh0" N = 121 E = 100 DATAPACKING = BLOCK, VARLOCATION = ([4-11]=CELLCENTERED),  ZONETYPE=FEQUADRILATERAL 
0.0    
0.0    
0.1    
0.1    
0.0    

0.1    
0.0    
0.1    
0.0    
0.1    

0.0    
0.1    
0.0    
0.1    
0.0    

0.1    
0.0    
0.1    
0.0    
0.1    

0.0    
0.1    
0.2    
0.2    
0.2    

0.2    
0.2    
0.2    
0.2    
0.2    

0.2    
0.2    
0.2    
0.3    
0.3    

0.3    
0.3    
0.3    
0.3    
0.3    

0.3    
0.3    
0.3    
0.3    
0.4    

0.4    
0.4    
0.4    
0.4    
0.4    

0.4    
0.4    
0.4    
0.4    
0.4    

0.5    
0.5    
0.5    
0.5    
0.5    

0.5    
0.5    
0.5    
0.5    
0.5    

0.5    
0.6    
0.6    
0.6    
0.6    

0.6    
0.6    
0.6    
0.6    
0.6    

0.6    
0.6    
0.7    
0.7    
0.7    

0.7    
0.7    
0.7    
0.7    
0.7    

0.7    
0.7    
0.7    
0.8    
0.8    

0.8    
0.8    
0.8    
0.8    
0.8    

0.8    
0.8    
0.8    
0.8    
0.9    

0.9    
0.9    
0.9    
0.9    
0.9    

0.9    
0.9    
0.9    
0.9    
0.9    

1.0    
1.0    
1.0    
1.0    
1.0    

1.0    
1.0    
1.0    
1.0    
1.0    

1.0    
1.0    
0.9    
1.0    
0.9    
0.8    

0.8    
0.7    
0.7    
0.6    
0.6    

0.5    
0.5    
0.4    
0.4    
0.3    

0.3    
0.2    
0.2    
0.1    
0.1    

0.0    
0.0    
1.0    
0.9    
0.8    

0.7    
0.6    
0.5    
0.4    
0.3    

0.2    
0.1    
0.0    
1.0    
0.9    

0.8    
0.7    
0.6    
0.5    
0.4    

0.3    
0.2    
0.1    
0.0    
1.0    

0.9    
0.8    
0.7    
0.6    
0.5    

0.4    
0.3    
0.2    
0.1    
0.0    

1.0    
0.9    
0.8    
0.7    
0.6    

0.5    
0.4    
0.3    
0.2    
0.1    

0.0    
1.0    
0.9    
0.8    
0.7    

0.6    
0.5    
0.4    
0.3    
0.2    

0.1    
0.0    
1.0    
0.9    
0.8    

0.7    
0.6    
0.5    
0.4    
0.3    

0.2    
0.1    
0.0    
1.0    
0.9    

0.8    
0.7    
0.6    
0.5    
0.4    

0.3    
0.2    
0.1    
0.0    
1.0    

0.9    
0.8    
0.7    
0.6    
0.5    

0.4    
0.3    
0.2    
0.1    
0.0    

0.9    
1.0    
0.8    
0.7    
0.6    

0.5    
0.4    
0.3    
0.2    
0.1    

0.0    
0.0    0.0    0.0    0.0    0.0    
0.0    0.0    0.0    0.0    0.0    
0.0    0.0    0.0    0.0    0.0    
0.0    0.0    0.0    0.0    0.0    
0.0    0.0    0.0    0.0    0.0    
0.0    0.0    0.0    0.0    0.0    
0.0    0.0    0.0    0.0    0.0    
0.0    0.0    0.0    0.0    0.0    
0.0    0.0    0.0    0.0    0.0    
0.0    0.0    0.0    0.0    0.0    
0.0    0.0    0.0    0.0    0.0    
0.0    0.0    0.0    0.0    0.0    
0.0    0.0    0.0    0.0    0.0    
0.0    0.0    0.0    0.0    0.0    
0.0    0.0    0.0    0.0    0.0    
0.0    0.0    0.0    0.0    0.0    
0.0    0.0    0.0    0.0    0.0    
0.0    0.0    0.0    0.0    0.0    
0.0    0.0    0.0    0.0    0.0    
0.0    0.0    0.0    0.0    0.0    
0.0    0.0    0.0    0.0    0.0    
0.0    0.0    0.0    0.0    0.0    
0.0    0.0    0.0    0.0    0.0    
0.0    0.0    0.0    0.0    0.0    
0.0    
0.000835555251513    0.0108226567276    0.0111833062025    0.0111927065225    0.0111929165527    
0.0111929165286    0.0111927064926    0.0111833059302    0.0108226575116    0.000835554773877    
0.000729298603759    0.00831513634179    0.00852833499764    0.00853358599183    0.00853368773468    
0.00853368653025    0.00853358479781    0.0085283358455    0.00831512877661    0.00072929653519    
3.56325829991e-05    0.00035733194581    0.000364867144548    0.000365040916378    0.000365044080753    
0.000365044050833    0.000365040667504    0.000364859919092    0.000357347961104    3.56318111885e-05    
1.07255110795e-06    9.00828832132e-06    9.1715475209e-06    9.17255099909e-06    9.17507369883e-06    
9.17139033699e-06    9.17358496044e-06    9.16078180211e-06    9.01848351403e-06    1.07177938104e-06    
2.55490342313e-08    1.69189644496e-07    1.74044373655e-07    1.7379713754e-07    1.73942211806e-07    
1.73739176176e-07    1.73730251205e-07    1.67718088686e-07    1.75716991343e-07    2.45689843691e-08    
-2.38740260518e-08    -1.73356774401e-07    -1.72502478707e-07    -1.72687269468e-07    -1.72700356737e-07    
-1.73916083049e-07    -1.74095202599e-07    -1.79024293299e-07    -1.66189059196e-07    -2.4681282634e-08    
-1.07090768359e-06    -9.01536907422e-06    -9.16985832832e-06    -9.17359724732e-06    -9.17367059396e-06    
-9.17369413647e-06    -9.17378503978e-06    -9.17590609234e-06    -9.00819672271e-06    -1.07176413932e-06    
-3.56311233728e-05    -0.000357345138778    -0.000364862128242    -0.000365036060315    -0.000365039268116    
-0.000365040132317    -0.000365037115406    -0.000364868167796    -0.000357324871128    -3.56302704991e-05    
-0.000729295103019    -0.00831512775976    -0.00852833366578    -0.00853358748137    -0.00853368675289    
-0.00853368921503    -0.00853358511509    -0.00852834182104    -0.00831513488704    -0.000729298334506    
-0.000835554785839    -0.0108226582353    -0.011183306881    -0.0111927070403    -0.0111929172673    
-0.0111929170736    -0.0111927072822    -0.0111833081276    -0.0108226570155    -0.000835555254913    

-0.0008246161962    -0.000728671075786    -3.55738077106e-05    -1.07065791035e-06    -2.5520384131e-08    
2.37949360105e-08    1.06895478531e-06    3.55718913852e-05    0.000728667455763    0.000824615791788    
-0.0108223418001    -0.00831527969152    -0.000357334097203    -9.00817288348e-06    -1.66505784773e-07    
1.73542436628e-07    9.0153426025e-06    0.000357346312616    0.00831527031407    0.0108223438353    
-0.0111832945508    -0.00852833851446    -0.000364871051818    -9.17182606054e-06    -1.75297891855e-07    
1.72383602436e-07    9.16847457079e-06    0.000364859556812    0.00852834076975    0.0111832953498    
-0.0111927062258    -0.00853358589073    -0.000365040947829    -9.17240719659e-06    -1.71218358434e-07    
1.72879142926e-07    9.17343531286e-06    0.000365035039903    0.00853358752837    0.0111927074155    
-0.0111929165262    -0.00853368639823    -0.000365046723569    -9.17414211394e-06    -1.73987930722e-07    
1.73790924844e-07    9.17353051959e-06    0.000365038203287    0.00853368722244    0.0111929173981    
-0.0111929165255    -0.00853368638859    -0.000365044046827    -9.17127120653e-06    -1.71128140757e-07    
1.74083256572e-07    9.17363514747e-06    0.000365040082737    0.00853368909168    0.0111929177429    
-0.0111927061982    -0.00853358477703    -0.000365043414836    -9.173907495e-06    -1.73850265148e-07    
1.73973109178e-07    9.17361801819e-06    0.000365035215544    0.00853358566932    0.0111927071195    
-0.0111832944709    -0.0085283418037    -0.000364863140948    -9.16328680038e-06    -1.66734413268e-07    
1.79074191733e-07    9.1750806111e-06    0.000364868153641    0.00852834487662    0.0111832971402    
-0.0108223423742    -0.00831527466906    -0.000357342464638    -9.01819542022e-06    -1.75505213118e-07    
1.66128968084e-07    9.0084102943e-06    0.000357326072189    0.00831527883289    0.0108223420353    
-0.000824615701046    -0.000728668441897    -3.55728840598e-05    -1.06949971444e-06    -2.44512637088e-08    
2.49911368869e-08    1.06991319612e-06    3.55717760899e-05    0.00072867060336    0.000824616199692    

3.69724333388e-17    2.32363237396e-17    2.11806029948e-17    3.46262941098e-17    3.04110939502e-17    
2.60339912647e-17    4.82506922405e-17    3.12088192885e-17    4.03780226772e-17    3.47825551239e-17    
2.85310258598e-17    1.07882026741e-17    5.71765310958e-17    4.01160972485e-17    3.43808505391e-17    
3.77618762555e-17    3.46381138263e-17    5.15548316481e-17    5.06448568296e-17    1.73747025785e-17    
2.83429602908e-17    3.45899215619e-17    3.85208718169e-17    3.31409945671e-17    2.85060473794e-17    
2.7768486261e-17    3.53907072091e-17    2.17803582484e-17    3.41769003774e-17    2.15061750806e-17    
1.30262511557e-17    4.65004114375e-17    4.40104694832e-17    5.76302812144e-17    5.88348738638e-17    
3.22301847847e-17    3.79348615177e-17    2.7616044888e-17    4.69218717554e-17    2.30201514104e-17    
2.22769394038e-17    2.26905154532e-17    5.78702624144e-17    4.7863988335e-17    2.41950211127e-17    
3.67032929208e-17    4.57563019616e-17    4.66345081572e-17    1.94761352476e-17    3.07110988511e-17    
2.16847706736e-17    5.71591286486e-17    3.83736493246e-17    3.34326559256e-17    2.24264129033e-17    
4.54953050861e-17    3.27044307226e-17    4.80426434514e-17    4.48693688912e-17    2.20677492312e-17    
1.33205271284e-17    4.25032797537e-17    3.45267764163e-17    3.51905558278e-17    3.47684986752e-17    
5.10088153661e-17    3.03260071208e-17    4.70061169451e-17    4.66946582336e-17    3.76041029919e-17    
2.28551863548e-17    3.05976690052e-17    4.35137079203e-17    3.11125628387e-17    4.51314375373e-17    
3.61856615551e-17    4.84302361514e-17    5.88135794884e-17    4.10051198296e-17    4.15158393613e-17    
3.65330293054e-17    4.75743097854e-17    3.8401011363e-17    5.76169072631e-17    4.65734400459e-17    
2.93377965518e-17    3.56827556618e-17    2.10286448464e-17    3.11669605625e-17    8.99385374279e-18    
1.79841306022e-17    4.08737815e-17    2.65142639082e-17    1.50623130435e-18    2.86240166361e-17    
8.13243207627e-18    1.66921603161e-17    3.03917401463e-17    2.40474129683e-17    1.43175034682e-17    

0.864329801119    0.791186669186    0.787589319715    0.787484933112    0.787482581282    
0.787482581442    0.787484933351    0.787589322626    0.791186666146    0.864329819938    
0.79119415153    1.00452621495    1.00253858966    1.00232381473    1.00231771081    
1.00231771143    1.00232381563    1.00253859179    1.0045262096    0.791194138125    
0.78758953517    1.00253859002    1.0004563583    1.00023652632    1.00023030326    
1.00023030334    1.00023652613    1.00045635725    1.00253859489    0.787589528571    
0.787484937703    1.00232381474    1.00023652618    1.00001656137    1.00001033635    
1.00001033649    1.00001656225    1.00023652407    1.00232381624    0.787484928037    
0.787482581398    1.00231771134    1.00023030386    1.00001033709    1.00000411167    
1.00000411166    1.00001033701    1.00023030303    1.0023177129    0.787482574623    
0.787482581406    1.00231771145    1.00023030329    1.00001033652    1.000004111    
1.0000041116    1.00001033697    1.00023030246    1.00231771208    0.787482571556    
0.787484937893    1.00232381562    1.00023652671    1.00001656244    1.00001033697    
1.00001033702    1.00001656226    1.00023652599    1.00232381658    0.78748493068    
0.787589535352    1.00253859303    1.00045635728    1.00023652496    1.00023030189    
1.00023030236    1.00023652523    1.00045635603    1.00253858967    0.787589515345    
0.791194150629    1.0045262106    1.00253859166    1.0023238161    1.00231771312    
1.0023177122    1.0023238168    1.00253858961    1.00452621692    0.791194150148    
0.86432982173    0.791186660415    0.787589314958    0.787484929441    0.787482575806    
0.787482577566    0.787484927261    0.787589306493    0.791186666921    0.864329801057    

1.72545399194    1.54804920942    1.53973228178    1.53948746755    1.53948177088    
1.53948177125    1.5394874681    1.53973228843    1.54804920007    1.72545403121    
1.54806494496    1.0512964368    1.0267232589    1.02597752072    1.0259605299    
1.02596053826    1.02597753016    1.02672328141    1.05129638944    1.54806491147    
1.5397327572    1.02672326039    1.00160074104    1.00084294966    1.00082575829    
1.00082575855    1.00084294906    1.0016007197    1.0267233014    1.53973274183    
1.53948747823    1.02597752083    1.00084294922    1.00008493948    1.00006775318    
1.00006775374    1.00008495486    1.0008429224    1.02597754147    1.53948745575    
1.53948177118    1.02596053803    1.00082576665    1.000067762    1.00005056823    
1.00005056821    1.00006776173    1.00082574694    1.02596055442    1.53948175522    
1.5394817712    1.02596053837    1.00082575847    1.00006775379    1.00005055975    
1.00005056802    1.00006776154    1.00082574319    1.02596054987    1.53948174829    
1.53948747866    1.02597753019    1.00084295725    1.00008495555    1.00006776146    
1.00006776171    1.00008495487    1.00084293792    1.02597754435    1.53948746166    
1.53973275782    1.02672328885    1.00160072107    1.00084292828    1.0008257369    
1.00082574279    1.00084293354    1.00160070213    1.02672325631    1.53973270997    
1.54806494062    1.05129639549    1.02672328329    1.02597754103    1.0259605558    
1.02596055021    1.02597754579    1.026723258    1.05129646703    1.54806494108    
1.72545403493    1.54804918631    1.53973227027    1.53948745865    1.53948175789    
1.53948176188    1.53948745365    1.53973224925    1.54804920353    1.7254539918    

3.93928351062e-07    3.8757484383e-07    3.87314408692e-07    3.87306106876e-07    3.87305882925e-07    
3.87305882936e-07    3.87306106892e-07    3.87314408888e-07    3.87574843141e-07    3.93928351376e-07    
3.87575065982e-07    2.33477296189e-07    2.29414702293e-07    2.29319516335e-07    2.29317571373e-07    
2.29317572773e-07    2.29319517877e-07    2.29414705971e-07    2.33477288675e-07    3.87575064508e-07    
3.87314419738e-07    2.29414702495e-07    2.25236120185e-07    2.2513815033e-07    2.25136152487e-07    
2.2513615252e-07    2.25138150256e-07    2.25236116489e-07    2.29414709015e-07    3.87314419233e-07    
3.87306107222e-07    2.29319516353e-07    2.25138150275e-07    2.25040111751e-07    2.25038113935e-07    
2.25038114011e-07    2.25040114396e-07    2.25138145772e-07    2.29319519812e-07    3.87306106493e-07    
3.87305882939e-07    2.29317572747e-07    2.251361539e-07    2.25038115406e-07    2.25036116273e-07    
2.25036116271e-07    2.25038115371e-07    2.2513615046e-07    2.29317575426e-07    3.87305882386e-07    
3.87305882939e-07    2.29317572788e-07    2.25136152513e-07    2.25038114015e-07    2.25036114849e-07    
2.25036116248e-07    2.25038115346e-07    2.2513614988e-07    2.29317574754e-07    3.87305882196e-07    
3.87306107236e-07    2.29319517885e-07    2.25138151641e-07    2.25040114485e-07    2.25038115332e-07    
2.25038115366e-07    2.25040114395e-07    2.25138148251e-07    2.29319520271e-07    3.87306106644e-07    
3.87314419791e-07    2.29414707088e-07    2.25236116733e-07    2.25138146683e-07    2.2513614884e-07    
2.25136149826e-07    2.25138147591e-07    2.25236113512e-07    2.29414701823e-07    3.87314418012e-07    
3.87575065458e-07    2.33477289577e-07    2.29414706336e-07    2.29319519758e-07    2.29317575634e-07    
2.29317574794e-07    2.2931952049e-07    2.2941470214e-07    2.33477301254e-07    3.87575065743e-07    
3.93928351404e-07    3.87574842624e-07    3.87314408242e-07    3.87306106525e-07    3.87305882458e-07    
3.87305882571e-07    3.87306106373e-07    3.8731440733e-07    3.87574843534e-07    3.9392835106e-07    

1.99629121859    1.95661690181    1.95499385687    1.95494212374    1.95494072818    
1.95494072825    1.95494212384    1.95499385809    1.95661689752    1.99629122055    
1.95661828638    1.04655948362    1.02412342976    1.0235988666    1.02358814858    
1.02358815629    1.02359887509    1.02412345003    1.04655944204    1.9566182772    
1.9549939257    1.02412343087    1.00114386073    1.00060627994    1.00059531793    
1.00059531811    1.00060627953    1.00114384044    1.0241234668    1.95499392256    
1.9549421259    1.0235988667    1.00060627964    1.00006837698    1.00005741624    
1.00005741665    1.00006839148    1.00060625493    1.02359888576    1.95494212136    
1.95494072827    1.02358815615    1.00059532568    1.00005742431    1.00004645637    
1.00004645636    1.00005742412    1.00059530681    1.02358817091    1.95494072483    
1.95494072827    1.02358815638    1.00059531808    1.00005741668    1.00004644856    
1.00004645623    1.00005742398    1.00059530363    1.02358816721    1.95494072364    
1.95494212598    1.02359887514    1.00060628713    1.00006839198    1.0000574239    
1.00005742409    1.00006839148    1.00060626853    1.02359888829    1.9549421223    
1.95499392604    1.02412345618    1.00114384178    1.00060625993    1.00059529792    
1.00059530333    1.00060626491    1.00114382411    1.02412342716    1.95499391494    
1.95661828312    1.04655944703    1.02412345204    1.02359888546    1.02358817206    
1.02358816743    1.02359888949    1.02412342891    1.04655951165    1.9566182849    
1.99629122073    1.9566168943    1.95499385406    1.95494212155    1.95494072528    
1.95494072598    1.95494212061    1.95499384838    1.95661689997    1.99629121858    

1221.74466805    1114.09823988    1108.85783224    1108.70529049    1108.70182895    
1108.70182919    1108.70529084    1108.85783647    1114.09823513    1221.74469488    
1114.10892583    1255.95721192    1248.32152914    1247.93261489    1247.92253255    
1247.9225351    1247.93261797    1248.32153649    1255.95719575    1114.10890596    
1108.858143    1248.32152985    1240.36900779    1239.96991269    1239.95961709    
1239.95961724    1239.96991237    1240.36900171    1248.32154424    1108.85813338    
1108.70529718    1247.93261492    1239.96991245    1239.57057747    1239.56027997    
1239.56028024    1239.57058197    1239.96990402    1247.93262121    1108.70528309    
1108.70182913    1247.92253496    1239.95961966    1239.5602828    1239.54998311    
1239.5499831    1239.56028265    1239.95961419    1247.92254031    1108.70181922    
1108.70182914    1247.92253514    1239.95961717    1239.56028028    1239.54998044    
1239.54998299    1239.56028256    1239.95961274    1247.92253844    1108.70181477    
1108.70529746    1247.93261797    1239.96991488    1239.57058233    1239.56028255    
1239.56028266    1239.57058199    1239.9699096    1247.93262221    1108.70528691    
1108.8581433    1248.32153947    1240.36900206    1239.9699063    1239.95961068    
1239.95961254    1239.96990781    1240.36899635    1248.32152856    1108.85811393    
1114.10892421    1255.95719813    1248.3215368    1247.93262096    1247.92254086    
1247.92253863    1247.93262277    1248.32152889    1255.95722078    1114.10892372    
1221.74469743    1114.09822671    1108.85782525    1108.70528508    1108.70182093    
1108.70182348    1108.70528191    1108.85781271    1114.09823649    1221.74466796    

2     4     3     1     4     2     5     6     6     5     7     8     8     7     9     10     10     9     11     12     12     11     13     14     14     13     15     16     16     15     17     18     18     17     19     20     20     19     21     22     3     4     24     23     4     6     25     24     6     8     26     25     8     10     27     26     10     12     28     27     12     14     29     28     14     16     30     29     16     18     31     30     18     20     32     31     20     22     33     32     23     24     35     34     24     25     36     35     25     26     37     36     26     27     38     37     27     28     39     38     28     29     40     39     29     30     41     40     30     31     42     41     31     32     43     42     32     33     44     43     34     35     46     45     35     36     47     46     36     37     48     47     37     38     49     48     38     39     50     49     39     40     51     50     40     41     52     51     41     42     53     52     42     43     54     53     43     44     55     54     45     46     57     56     46     47     58     57     47     48     59     58     48     49     60     59     49     50     61     60     50     51     62     61     51     52     63     62     52     53     64     63     53     54     65     64     54     55     66     65     56     57     68     67     57     58     69     68     58     59     70     69     59     60     71     70     60     61     72     71     61     62     73     72     62     63     74     73     63     64     75     74     64     65     76     75     65     66     77     76     67     68     79     78     68     69     80     79     69     70     81     80     70     71     82     81     71     72     83     82     72     73     84     83     73     74     85     84     74     75     86     85     75     76     87     86     76     77     88     87     78     79     90     89     79     80     91     90     80     81     92     91     81     82     93     92     82     83     94     93     83     84     95     94     84     85     96     95     85     86     97     96     86     87     98     97     87     88     99     98     89     90     101     100     90     91     102     101     91     92     103     102     92     93     104     103     93     94     105     104     94     95     106     105     95     96     107     106     96     97     108     107     97     98     109     108     98     99     110     109     100     101     111     112     101     102     113     111     102     103     114     113     103     104     115     114     104     105     116     115     105     106     117     116     106     107     118     117     107     108     119     118     108     109     120     119     109     110     121     120     

