Title = " tecplot out file" 
variables = "x", "y", "z", "velX", "velY", "velZ","density","pressure","viscosity","temperature", "collisionFrequency",
Zone T = "nmesh0" N = 121 E = 100 DATAPACKING = BLOCK, VARLOCATION = ([4-11]=CELLCENTERED),  ZONETYPE=FEQUADRILATERAL 
0.0    
0.0    
0.1    
0.1    
0.0    

0.1    
0.0    
0.1    
0.0    
0.1    

0.0    
0.1    
0.0    
0.1    
0.0    

0.1    
0.0    
0.1    
0.0    
0.1    

0.0    
0.1    
0.2    
0.2    
0.2    

0.2    
0.2    
0.2    
0.2    
0.2    

0.2    
0.2    
0.2    
0.3    
0.3    

0.3    
0.3    
0.3    
0.3    
0.3    

0.3    
0.3    
0.3    
0.3    
0.4    

0.4    
0.4    
0.4    
0.4    
0.4    

0.4    
0.4    
0.4    
0.4    
0.4    

0.5    
0.5    
0.5    
0.5    
0.5    

0.5    
0.5    
0.5    
0.5    
0.5    

0.5    
0.6    
0.6    
0.6    
0.6    

0.6    
0.6    
0.6    
0.6    
0.6    

0.6    
0.6    
0.7    
0.7    
0.7    

0.7    
0.7    
0.7    
0.7    
0.7    

0.7    
0.7    
0.7    
0.8    
0.8    

0.8    
0.8    
0.8    
0.8    
0.8    

0.8    
0.8    
0.8    
0.8    
0.9    

0.9    
0.9    
0.9    
0.9    
0.9    

0.9    
0.9    
0.9    
0.9    
0.9    

1.0    
1.0    
1.0    
1.0    
1.0    

1.0    
1.0    
1.0    
1.0    
1.0    

1.0    
1.0    
0.9    
1.0    
0.9    
0.8    

0.8    
0.7    
0.7    
0.6    
0.6    

0.5    
0.5    
0.4    
0.4    
0.3    

0.3    
0.2    
0.2    
0.1    
0.1    

0.0    
0.0    
1.0    
0.9    
0.8    

0.7    
0.6    
0.5    
0.4    
0.3    

0.2    
0.1    
0.0    
1.0    
0.9    

0.8    
0.7    
0.6    
0.5    
0.4    

0.3    
0.2    
0.1    
0.0    
1.0    

0.9    
0.8    
0.7    
0.6    
0.5    

0.4    
0.3    
0.2    
0.1    
0.0    

1.0    
0.9    
0.8    
0.7    
0.6    

0.5    
0.4    
0.3    
0.2    
0.1    

0.0    
1.0    
0.9    
0.8    
0.7    

0.6    
0.5    
0.4    
0.3    
0.2    

0.1    
0.0    
1.0    
0.9    
0.8    

0.7    
0.6    
0.5    
0.4    
0.3    

0.2    
0.1    
0.0    
1.0    
0.9    

0.8    
0.7    
0.6    
0.5    
0.4    

0.3    
0.2    
0.1    
0.0    
1.0    

0.9    
0.8    
0.7    
0.6    
0.5    

0.4    
0.3    
0.2    
0.1    
0.0    

0.9    
1.0    
0.8    
0.7    
0.6    

0.5    
0.4    
0.3    
0.2    
0.1    

0.0    
0.0    0.0    0.0    0.0    0.0    
0.0    0.0    0.0    0.0    0.0    
0.0    0.0    0.0    0.0    0.0    
0.0    0.0    0.0    0.0    0.0    
0.0    0.0    0.0    0.0    0.0    
0.0    0.0    0.0    0.0    0.0    
0.0    0.0    0.0    0.0    0.0    
0.0    0.0    0.0    0.0    0.0    
0.0    0.0    0.0    0.0    0.0    
0.0    0.0    0.0    0.0    0.0    
0.0    0.0    0.0    0.0    0.0    
0.0    0.0    0.0    0.0    0.0    
0.0    0.0    0.0    0.0    0.0    
0.0    0.0    0.0    0.0    0.0    
0.0    0.0    0.0    0.0    0.0    
0.0    0.0    0.0    0.0    0.0    
0.0    0.0    0.0    0.0    0.0    
0.0    0.0    0.0    0.0    0.0    
0.0    0.0    0.0    0.0    0.0    
0.0    0.0    0.0    0.0    0.0    
0.0    0.0    0.0    0.0    0.0    
0.0    0.0    0.0    0.0    0.0    
0.0    0.0    0.0    0.0    0.0    
0.0    0.0    0.0    0.0    0.0    
0.0    
0.000611275128636    0.00909551430861    0.00943153668316    0.00944101758089    0.00944124602491    
0.00944124599978    0.00944101754958    0.00943153642835    0.00909551505478    0.000611274758979    
0.000709177781962    0.00889378210171    0.0091419699495    0.00914852582919    0.00914866134365    
0.00914866011952    0.00914852461208    0.00914197071044    0.00889377458491    0.000709175985872    
3.71522371279e-05    0.000414117379231    0.00042355546335    0.000423787191084    0.000423791660815    
0.00042379162829    0.000423786920412    0.000423548135045    0.000414133560608    3.71516843237e-05    
1.19194247316e-06    1.12018458589e-05    1.14165177269e-05    1.14189197126e-05    1.14215030413e-05    
1.14177678429e-05    1.14199469291e-05    1.14055256279e-05    1.12122822559e-05    1.19130947345e-06    
2.98885340498e-08    2.24852081132e-07    2.30754908196e-07    2.30511284259e-07    2.30670986529e-07    
2.30447286528e-07    2.30439913654e-07    2.24271973154e-07    2.31549107941e-07    2.90708082248e-08    
-2.84789238778e-08    -2.29130709825e-07    -2.29171123565e-07    -2.29389439178e-07    -2.29404431809e-07    
-2.30641101911e-07    -2.30832258594e-07    -2.35840055348e-07    -2.21804400853e-07    -2.91511874402e-08    
-1.19056751612e-06    -1.12091109052e-05    -1.14147706973e-05    -1.14199514273e-05    -1.14200564518e-05    
-1.14200823623e-05    -1.14201546203e-05    -1.14209443631e-05    -1.12017044057e-05    -1.19126158619e-06    
-3.7151100227e-05    -0.000414130612607    -0.000423550349022    -0.000423782237929    -0.000423786756756    
-0.000423787645114    -0.000423783332068    -0.000423556524776    -0.000414110180412    -3.71502676477e-05    
-0.00070917476549    -0.00889377352968    -0.00914196859683    -0.00914852734816    -0.00914866037261    
-0.00914866285148    -0.00914852496782    -0.00914197690473    -0.00889378060511    -0.000709177609946    
-0.000611274763902    -0.0090955156863    -0.00943153725892    -0.00944101802452    -0.00944124663595    
-0.00944124647164    -0.00944101823498    -0.00943153839452    -0.00909551455147    -0.000611275132175    

-0.000604002428563    -0.00070868492849    -3.70948781488e-05    -1.1899211646e-06    -2.98526440309e-08    
2.83938184396e-08    1.18848686093e-06    3.70932964225e-05    0.000708681819304    0.000604002112844    
-0.00909524447949    -0.00889394156811    -0.000414119994587    -1.12017308438e-05    -2.22121894601e-07    
2.29333257758e-07    1.12090817498e-05    0.000414132228703    0.00889393219553    0.0090952463139    
-0.0094315255082    -0.00914197419055    -0.000423559452556    -1.14168227254e-05    -2.32028556065e-07    
2.29042581782e-07    1.14133525181e-05    0.000423547795406    0.00914197644633    0.00943152618094    
-0.00944101726726    -0.00914852573621    -0.000423787227707    -1.1418769252e-05    -2.2789131067e-07    
2.29598996016e-07    1.14197746393e-05    0.000423781200539    0.00914852740572    0.00944101829388    
-0.009441245996    -0.00914865997838    -0.00042379434493    -1.14205745536e-05    -2.30713829204e-07    
2.30508495674e-07    1.14199091464e-05    0.000423785695142    0.00914866082943    0.00944124675051    
-0.00944124599517    -0.00914865996975    -0.000423791626906    -1.14176442099e-05    -2.27793272269e-07    
2.30823860363e-07    1.14200196653e-05    0.00042378758874    0.0091486627117    0.00944124705071    
-0.00944101723838    -0.00914852460454    -0.000423789721089    -1.14202972297e-05    -2.30565503538e-07    
2.30702968631e-07    1.14199772922e-05    0.000423781413407    0.00914852553032    0.00944101804062    
-0.00943152541886    -0.00914197742255    -0.000423551413421    -1.14080764516e-05    -2.23253294988e-07    
2.35894621884e-07    1.14201106928e-05    0.000423556519481    0.00914198066034    0.00943152778823    
-0.00909524503942    -0.0088939366352    -0.00041412847454    -1.12119699904e-05    -2.31338266687e-07    
2.21738803888e-07    1.12019200657e-05    0.000414111824785    0.00889394068151    0.00909524467803    
-0.000604002042601    -0.00070868266912    -3.7094129733e-05    -1.18895414659e-06    -2.89561430531e-08    
2.94008324323e-08    1.18927194184e-06    3.70930839356e-05    0.000708684594485    0.000604002432217    

1.32548209027e-17    2.68519251508e-17    7.2448737322e-18    2.99519680589e-17    3.23191714127e-17    
1.87355724935e-17    3.20654853283e-17    4.39284345567e-17    2.46251982657e-17    1.44602150833e-17    
1.35482747282e-17    4.75763760894e-17    3.84706776344e-17    3.29773115457e-17    2.33079454301e-17    
4.72952552681e-17    2.95993548599e-17    5.14346871545e-17    5.67682968873e-17    2.35259138623e-17    
4.29592405695e-17    5.51991163402e-17    5.62236226214e-17    4.40250629379e-17    2.23661836476e-17    
5.034352151e-17    6.18932947342e-17    3.37947448964e-17    4.42926602958e-17    2.27842614629e-17    
2.62315442497e-17    2.04120392955e-17    4.88281626567e-17    4.26461151096e-17    7.37888734218e-17    
3.12059026139e-17    4.90769309805e-17    4.04930898463e-17    5.3546233119e-17    4.42557120106e-17    
2.84382807868e-17    3.24274601823e-17    4.87849362704e-17    3.35986072033e-17    4.79559242517e-17    
4.36927706125e-17    3.44235441659e-17    4.07262088705e-17    2.148979909e-17    3.72497130364e-17    
3.59856973784e-17    4.30471413268e-17    4.27604185684e-17    2.2673069478e-17    3.97435660156e-17    
2.16613654581e-17    3.61795076432e-17    3.53907292221e-17    3.26018351936e-17    1.11549717514e-17    
6.53995846721e-18    4.57091248657e-17    2.29899574395e-17    2.1338075262e-17    3.52796906166e-17    
4.59561642063e-17    5.3187419055e-17    3.71330639735e-17    4.84670463611e-17    6.46014444613e-18    
3.10121697772e-17    2.7790989762e-17    2.68435742027e-17    2.46677858873e-17    3.72633270299e-17    
3.48060403259e-17    4.97585043909e-17    2.463614302e-17    3.24614292041e-17    3.62476452492e-17    
2.00281552974e-17    5.34044131035e-17    3.70078241904e-17    4.09134031535e-17    4.02475967176e-17    
4.57801759927e-17    2.9882631716e-17    2.9728370029e-17    3.81782892461e-17    2.19105470374e-17    
4.04669831471e-17    4.06224480569e-17    3.29384949591e-17    2.24687711315e-17    3.67548164026e-17    
2.82701844477e-17    3.426381349e-17    8.44395360113e-18    3.1525923058e-17    1.37151727503e-17    

0.863080897865    0.787766270704    0.783912782832    0.783794866737    0.78379205667    
0.783792056852    0.783794867012    0.783912785877    0.787766267401    0.863080916907    
0.787773759699    1.00465530369    1.00264907987    1.00239928392    1.00239161015    
1.00239161077    1.00239928485    1.0026490819    1.00465529839    0.7877737457    
0.783913015593    1.00264908027    1.00053299721    1.00027673148    1.00026889415    
1.00026889424    1.00027673127    1.0005329962    1.0026490851    0.78391300892    
0.783794872054    1.00239928393    1.00027673134    1.00002028418    1.0000124438    
1.00001244395    1.00002028501    1.00027672922    1.00239928547    0.783794862112    
0.783792056821    1.00239161068    1.00026889475    1.00001244456    1.00000460378    
1.00000460377    1.00001244446    1.00026889391    1.00239161225    0.783792049824    
0.78379205683    1.0023916108    1.00026889419    1.00001244399    1.00000460311    
1.00000460371    1.00001244442    1.00026889336    1.00239161143    0.783792046675    
0.783794872276    1.00239928484    1.00027673186    1.00002028523    1.00001244441    
1.00001244448    1.00002028502    1.00027673113    1.00239928575    0.783794864794    
0.783913015926    1.00264908318    1.00053299622    1.00027673011    1.00026889276    
1.00026889325    1.00027673037    1.00053299494    1.0026490799    0.783912995124    
0.787773758561    1.0046552994    1.00264908183    1.00239928531    1.00239161247    
1.00239161156    1.00239928597    1.00264907982    1.00465530569    0.787773758303    
0.863080918757    0.787766261497    0.78391277798    0.783794862946    0.783792051047    
0.783792052828    0.783794860702    0.783912769049    0.787766268451    0.863080897787    

1.72383683512    1.5469599885    1.53821559335    1.53794374304    1.53793705833    
1.53793705874    1.53794374366    1.53821560019    1.54695997893    1.72383687449    
1.54697561731    1.05520333744    1.02884661198    1.02798715075    1.02796619036    
1.02796619885    1.0279871604    1.02884663437    1.05520328985    1.54697558335    
1.53821610138    1.02884661375    1.00184643599    1.00097197388    1.00095075325    
1.00095075354    1.00097197325    1.00184641443    1.02884665505    1.53821608621    
1.53794375524    1.02798715088    1.00097197343    1.00009723274    1.00007601662    
1.00007601723    1.00009724826    1.00097194621    1.02798717189    1.53794373262    
1.5379370587    1.02796619861    1.00095076175    1.0000760256    1.00005480197    
1.00005480196    1.00007602531    1.00095074168    1.02796621526    1.53793704261    
1.53793705872    1.02796619898    1.00095075347    1.00007601729    1.00005479338    
1.00005480177    1.00007602512    1.00095073794    1.02796621066    1.53793703561    
1.53794375574    1.02798716047    1.00097198155    1.000097249    1.00007602501    
1.00007602529    1.00009724827    1.00097196189    1.02798717468    1.53794373851    
1.53821610235    1.02884664216    1.00184641581    1.00097195215    1.0009507315    
1.00095073751    1.00097195747    1.00184639648    1.02884660958    1.5382160538    
1.5469756127    1.05520329599    1.02884663654    1.02798717142    1.02796621664    
1.02796621104    1.02798717612    1.02884661106    1.05520336818    1.54697561357    
1.72383687831    1.54695996512    1.53821558193    1.53794373412    1.53793704532    
1.53793704929    1.53794372905    1.5382155604    1.54695998285    1.72383683495    

3.94090576444e-07    3.88715678898e-07    3.88474885514e-07    3.88466605095e-07    3.88466365539e-07    
3.8846636555e-07    3.88466605111e-07    3.88474885692e-07    3.8871567827e-07    3.94090576692e-07    
3.88715866647e-07    2.34155483555e-07    2.29778418798e-07    2.29669276497e-07    2.29666907481e-07    
2.29666908903e-07    2.29669278073e-07    2.29778422473e-07    2.34155476003e-07    3.88715865329e-07    
3.88474896009e-07    2.29778419045e-07    2.25266894872e-07    2.25154328672e-07    2.25151891234e-07    
2.2515189127e-07    2.25154328596e-07    2.2526689113e-07    2.29778425621e-07    3.88474895583e-07    
3.88466605455e-07    2.29669276519e-07    2.25154328617e-07    2.25041673809e-07    2.25039235954e-07    
2.25039236036e-07    2.25041676484e-07    2.25154324043e-07    2.29669280037e-07    3.88466604818e-07    
3.88466365555e-07    2.29666908876e-07    2.25151892672e-07    2.25039237451e-07    2.25036798256e-07    
2.25036798255e-07    2.25039237416e-07    2.2515188917e-07    2.29666911596e-07    3.88466365071e-07    
3.88466365555e-07    2.29666908921e-07    2.25151891267e-07    2.25039236041e-07    2.25036796811e-07    
2.25036798232e-07    2.2503923739e-07    2.25151888589e-07    2.29666910917e-07    3.88466364904e-07    
3.88466605469e-07    2.29669278085e-07    2.25154330002e-07    2.2504167658e-07    2.25039237371e-07    
2.2503923741e-07    2.25041676484e-07    2.25154326552e-07    2.29669280489e-07    3.88466604948e-07    
3.88474896073e-07    2.29778423644e-07    2.25266891376e-07    2.25154324962e-07    2.25151887523e-07    
2.2515188853e-07    2.25154325885e-07    2.25266888089e-07    2.29778418359e-07    3.88474894491e-07    
3.88715866162e-07    2.34155476915e-07    2.29778422878e-07    2.2966927998e-07    2.29666911806e-07    
2.29666910962e-07    2.29669280709e-07    2.29778418644e-07    2.34155488702e-07    3.88715866443e-07    
3.94090576715e-07    3.88715677819e-07    3.88474885126e-07    3.8846660479e-07    3.88466365134e-07    
3.88466365232e-07    3.88466604656e-07    3.88474884306e-07    3.88715678648e-07    3.94090576442e-07    

1.99730620778    1.96372965691    1.96222797617    1.96217634015    1.9621748463    
1.96217484637    1.96217634025    1.96222797728    1.963729653    1.99730620933    
1.96373082788    1.0503138077    1.02612831611    1.02552662122    1.02551356172    
1.02551356955    1.0255266299    1.02612833637    1.05031376588    1.96373081966    
1.96222804161    1.02612831747    1.0013127391    1.00069505006    1.0006816758    
1.000681676    1.00069504963    1.00131271856    1.02612835372    1.96222803896    
1.9621763424    1.02552662134    1.00069504975    1.000076947    1.00006357204    
1.00006357249    1.00007696168    1.00069502466    1.02552664073    1.96217633843    
1.9621748464    1.02551356941    1.0006816837    1.00006358025    1.00005019796    
1.00005019796    1.00006358005    1.00068166448    1.0255135844    1.96217484338    
1.9621748464    1.02551356965    1.00068167598    1.00006357252    1.00005019003    
1.00005019783    1.00006357991    1.00068166129    1.02551358065    1.96217484234    
1.96217634249    1.02552662997    1.00069505735    1.00007696221    1.00006357981    
1.00006358002    1.00007696168    1.00069503842    1.02552664322    1.96217633923    
1.96222804201    1.02612834282    1.00131271991    1.0006950297    1.00068165544    
1.00068166097    1.00069503476    1.00131270188    1.02612831368    1.96222803215    
1.96373082485    1.05031377092    1.0261283386    1.02552664041    1.02551358556    
1.0255135809    1.02552664443    1.02612831526    1.0503138362    1.9637308266    
1.99730620948    1.96372965019    1.96222797375    1.96217633825    1.96217484378    
1.96217484439    1.96217633741    1.96222796864    1.96372965536    1.99730620777    

1220.09715189    1110.0469032    1104.45638215    1104.28472857    1104.28060975    
1104.28061001    1104.28472897    1104.45638656    1110.04689812    1220.09717899    
1110.05758176    1256.97352454    1248.92311077    1248.47281689    1248.4602386    
1248.46024119    1248.47282005    1248.92311798    1256.97350839    1110.05756115    
1104.45671709    1248.92311158    1240.50377938    1240.04065525    1240.02779044    
1240.0277906    1240.04065489    1240.5037733    1248.92312598    1104.4567074    
1104.2847363    1248.47281693    1240.040655    1239.57721034    1239.56434196    
1239.56434226    1239.57721483    1240.04064647    1248.47282333    1104.28472187    
1104.28060997    1248.46024103    1240.02779305    1239.56434484    1239.55147426    
1239.55147425    1239.56434468    1240.02778748    1248.46024647    1104.28059979    
1104.28060998    1248.46024124    1240.02779054    1239.56434231    1239.55147157    
1239.55147414    1239.56434458    1240.02778605    1248.46024458    1104.28059524    
1104.28473663    1248.47282006    1240.04065743    1239.57721522    1239.56434456    
1239.56434468    1239.57721485    1240.04065207    1248.47282426    1104.28472574    
1104.4567176    1248.92312107    1240.50377365    1240.04064876    1240.02778393    
1240.02778583    1240.04065027    1240.50376781    1248.92311025    1104.45668724    
1110.05757983    1256.97351081    1248.92311842    1248.47282306    1248.460247    
1248.46024479    1248.47282481    1248.9231105    1256.97353353    1110.05757965    
1220.09718162    1110.0468895    1104.45637506    1104.28472303    1104.28060155    
1104.28060413    1104.28471978    1104.45636193    1110.04689986    1220.09715178    

2     4     3     1     4     2     5     6     6     5     7     8     8     7     9     10     10     9     11     12     12     11     13     14     14     13     15     16     16     15     17     18     18     17     19     20     20     19     21     22     3     4     24     23     4     6     25     24     6     8     26     25     8     10     27     26     10     12     28     27     12     14     29     28     14     16     30     29     16     18     31     30     18     20     32     31     20     22     33     32     23     24     35     34     24     25     36     35     25     26     37     36     26     27     38     37     27     28     39     38     28     29     40     39     29     30     41     40     30     31     42     41     31     32     43     42     32     33     44     43     34     35     46     45     35     36     47     46     36     37     48     47     37     38     49     48     38     39     50     49     39     40     51     50     40     41     52     51     41     42     53     52     42     43     54     53     43     44     55     54     45     46     57     56     46     47     58     57     47     48     59     58     48     49     60     59     49     50     61     60     50     51     62     61     51     52     63     62     52     53     64     63     53     54     65     64     54     55     66     65     56     57     68     67     57     58     69     68     58     59     70     69     59     60     71     70     60     61     72     71     61     62     73     72     62     63     74     73     63     64     75     74     64     65     76     75     65     66     77     76     67     68     79     78     68     69     80     79     69     70     81     80     70     71     82     81     71     72     83     82     72     73     84     83     73     74     85     84     74     75     86     85     75     76     87     86     76     77     88     87     78     79     90     89     79     80     91     90     80     81     92     91     81     82     93     92     82     83     94     93     83     84     95     94     84     85     96     95     85     86     97     96     86     87     98     97     87     88     99     98     89     90     101     100     90     91     102     101     91     92     103     102     92     93     104     103     93     94     105     104     94     95     106     105     95     96     107     106     96     97     108     107     97     98     109     108     98     99     110     109     100     101     111     112     101     102     113     111     102     103     114     113     103     104     115     114     104     105     116     115     105     106     117     116     106     107     118     117     107     108     119     118     108     109     120     119     109     110     121     120     

