Title = " tecplot out file" 
variables = "x", "y", "z", "velX", "velY", "velZ","density","pressure","viscosity","temperature", "collisionFrequency",
Zone T = "nmesh0" N = 121 E = 100 DATAPACKING = BLOCK, VARLOCATION = ([4-11]=CELLCENTERED),  ZONETYPE=FEQUADRILATERAL 
0.0    
0.0    
0.1    
0.1    
0.0    

0.1    
0.0    
0.1    
0.0    
0.1    

0.0    
0.1    
0.0    
0.1    
0.0    

0.1    
0.0    
0.1    
0.0    
0.1    

0.0    
0.1    
0.2    
0.2    
0.2    

0.2    
0.2    
0.2    
0.2    
0.2    

0.2    
0.2    
0.2    
0.3    
0.3    

0.3    
0.3    
0.3    
0.3    
0.3    

0.3    
0.3    
0.3    
0.3    
0.4    

0.4    
0.4    
0.4    
0.4    
0.4    

0.4    
0.4    
0.4    
0.4    
0.4    

0.5    
0.5    
0.5    
0.5    
0.5    

0.5    
0.5    
0.5    
0.5    
0.5    

0.5    
0.6    
0.6    
0.6    
0.6    

0.6    
0.6    
0.6    
0.6    
0.6    

0.6    
0.6    
0.7    
0.7    
0.7    

0.7    
0.7    
0.7    
0.7    
0.7    

0.7    
0.7    
0.7    
0.8    
0.8    

0.8    
0.8    
0.8    
0.8    
0.8    

0.8    
0.8    
0.8    
0.8    
0.9    

0.9    
0.9    
0.9    
0.9    
0.9    

0.9    
0.9    
0.9    
0.9    
0.9    

1.0    
1.0    
1.0    
1.0    
1.0    

1.0    
1.0    
1.0    
1.0    
1.0    

1.0    
1.0    
0.9    
1.0    
0.9    
0.8    

0.8    
0.7    
0.7    
0.6    
0.6    

0.5    
0.5    
0.4    
0.4    
0.3    

0.3    
0.2    
0.2    
0.1    
0.1    

0.0    
0.0    
1.0    
0.9    
0.8    

0.7    
0.6    
0.5    
0.4    
0.3    

0.2    
0.1    
0.0    
1.0    
0.9    

0.8    
0.7    
0.6    
0.5    
0.4    

0.3    
0.2    
0.1    
0.0    
1.0    

0.9    
0.8    
0.7    
0.6    
0.5    

0.4    
0.3    
0.2    
0.1    
0.0    

1.0    
0.9    
0.8    
0.7    
0.6    

0.5    
0.4    
0.3    
0.2    
0.1    

0.0    
1.0    
0.9    
0.8    
0.7    

0.6    
0.5    
0.4    
0.3    
0.2    

0.1    
0.0    
1.0    
0.9    
0.8    

0.7    
0.6    
0.5    
0.4    
0.3    

0.2    
0.1    
0.0    
1.0    
0.9    

0.8    
0.7    
0.6    
0.5    
0.4    

0.3    
0.2    
0.1    
0.0    
1.0    

0.9    
0.8    
0.7    
0.6    
0.5    

0.4    
0.3    
0.2    
0.1    
0.0    

0.9    
1.0    
0.8    
0.7    
0.6    

0.5    
0.4    
0.3    
0.2    
0.1    

0.0    
0.0    0.0    0.0    0.0    0.0    
0.0    0.0    0.0    0.0    0.0    
0.0    0.0    0.0    0.0    0.0    
0.0    0.0    0.0    0.0    0.0    
0.0    0.0    0.0    0.0    0.0    
0.0    0.0    0.0    0.0    0.0    
0.0    0.0    0.0    0.0    0.0    
0.0    0.0    0.0    0.0    0.0    
0.0    0.0    0.0    0.0    0.0    
0.0    0.0    0.0    0.0    0.0    
0.0    0.0    0.0    0.0    0.0    
0.0    0.0    0.0    0.0    0.0    
0.0    0.0    0.0    0.0    0.0    
0.0    0.0    0.0    0.0    0.0    
0.0    0.0    0.0    0.0    0.0    
0.0    0.0    0.0    0.0    0.0    
0.0    0.0    0.0    0.0    0.0    
0.0    0.0    0.0    0.0    0.0    
0.0    0.0    0.0    0.0    0.0    
0.0    0.0    0.0    0.0    0.0    
0.0    0.0    0.0    0.0    0.0    
0.0    0.0    0.0    0.0    0.0    
0.0    0.0    0.0    0.0    0.0    
0.0    0.0    0.0    0.0    0.0    
0.0    
0.00166015212731    0.015819471791    0.0162324784882    0.0162414253733    0.016241592843    
0.0162415928216    0.0162414253471    0.0162324781836    0.0158194726298    0.00166015137022    
0.000779880127902    0.00711026795329    0.00726016103601    0.00726331150398    0.00726336425819    
0.00726336310551    0.0072633103669    0.007260162033    0.00711026040079    0.000779877423343    
3.21349718409e-05    0.000254121838877    0.000258608398623    0.000258698178647    0.000258699611542    
0.000258699586962    0.000258697974286    0.000258601459525    0.000254137341584    3.21336968265e-05    
8.28869911615e-07    5.45469498063e-06    5.54265336782e-06    5.54182552898e-06    5.54422354404e-06    
5.54068259208e-06    5.54285978133e-06    5.53244787169e-06    5.46430721654e-06    8.27787425148e-07    
1.76170643461e-08    8.77591423909e-08    9.11129301298e-08    9.08782083287e-08    9.09939004003e-08    
9.08325701749e-08    9.08202123547e-08    8.51646226108e-08    9.38899534302e-08    1.62715001949e-08    
-1.53456775481e-08    -9.16674845569e-08    -8.96670248559e-08    -8.9804093793e-08    -8.98138391018e-08    
-9.09754815281e-08    -9.11287934861e-08    -9.58314380199e-08    -8.48874469094e-08    -1.64565698485e-08    
-8.26624213222e-07    -5.46134106027e-06    -5.54109195439e-06    -5.54288579194e-06    -5.54291899649e-06    
-5.54293791705e-06    -5.54304227002e-06    -5.54682261717e-06    -5.45469723007e-06    -8.27848664061e-07    
-3.21327765558e-05    -0.000254134785422    -0.000258603626303    -0.000258693567686    -0.000258695033215    
-0.000258695841884    -0.000258694536724    -0.000258609338662    -0.000254115092278    -3.21318512428e-05    
-0.000779875514035    -0.00711025946946    -0.00726015977329    -0.00726331291586    -0.00726336327948    
-0.00726336566445    -0.00726331061967    -0.00726016751416    -0.00711026660792    -0.000779879640182    
-0.00166015140249    -0.0158194735485    -0.0162324793909    -0.0162414260514    -0.0162415937836    
-0.016241593524    -0.0162414263619    -0.0162324808812    -0.0158194721509    -0.00166015213017    

-0.00163590380601    -0.000778890280617    -3.20746152699e-05    -8.27295096453e-07    -1.76034697609e-08    
1.52785875214e-08    8.24988010704e-07    3.20719456851e-05    0.000778885478825    0.00163590317395    
-0.0158190517244    -0.00711037887143    -0.000254123190015    -5.45458242326e-06    -8.51948344074e-08    
9.18191044756e-08    5.46132244567e-06    0.00025413521289    0.00711036961194    0.0158190541692    
-0.0162324663705    -0.00726016328496    -0.000258612111501    -5.54287899736e-06    -9.23138381805e-08    
8.9567685812e-08    5.53978969152e-06    0.000258601072481    0.00726016551898    0.0162324674399    
-0.0162414251261    -0.007263311395    -0.000258698199846    -5.54169596666e-06    -8.84080482757e-08    
8.9960303385e-08    5.54275387867e-06    0.000258692593131    0.00726331294791    0.016241426672    
-0.0162415928223    -0.00726336299204    -0.000258702144609    -5.54329753355e-06    -9.10449280045e-08    
9.08657364943e-08    5.54279395037e-06    0.000258693987437    0.00726336376356    0.0162415939491    
-0.0162415928217    -0.00726336298082    -0.000258699577909    -5.54057359339e-06    -8.83341369463e-08    
9.11110457845e-08    5.54288668068e-06    0.000258695805591    0.00726336557308    0.0162415943925    
-0.0162414251017    -0.00726331032753    -0.000258700588352    -5.54312632712e-06    -9.09288030185e-08    
9.10216058421e-08    5.54289628009e-06    0.000258692707159    0.00726331115425    0.0162414262799    
-0.0162324663075    -0.00726016663586    -0.000258604536476    -5.53483374328e-06    -8.42529552871e-08    
9.58721585623e-08    5.5460275515e-06    0.000258609314927    0.00726016935814    0.0162324696344    
-0.0158190523056    -0.00711037375141    -0.000254131252126    -5.46407144512e-06    -9.36795379513e-08    
8.48388857227e-08    5.45490572293e-06    0.000254115557382    0.00711037808287    0.0158190520137    
-0.0016359030292    -0.000778886769899    -3.20732977407e-05    -8.25706342663e-07    -1.61460313187e-08    
1.69011513833e-08    8.26338354642e-07    3.20720243071e-05    0.000778889486128    0.00163590380891    

8.88307384476e-18    3.51938764297e-17    3.37460481761e-17    1.65514156742e-17    2.85644346075e-17    
2.96074813199e-17    2.72528934277e-17    4.03639812047e-17    4.06856400122e-17    1.68627176166e-17    
2.24221278679e-17    3.03582478307e-17    4.52555794254e-18    4.12988820973e-17    5.07241588973e-17    
4.87167522143e-17    3.43504700547e-17    4.71778279692e-17    1.79474383781e-17    4.25477884265e-17    
2.30077633705e-17    4.44005145022e-17    3.59037694789e-17    3.3010022064e-17    6.11922526356e-17    
3.88186165745e-17    2.63243418096e-17    4.44588389704e-17    5.66517515787e-17    3.28066366565e-17    
9.26363838149e-18    5.36805422524e-17    4.4291972719e-17    5.20911698902e-17    3.11204239419e-17    
4.11671905146e-17    4.22055845551e-17    4.10993522629e-17    5.08975569642e-17    2.49425239449e-17    
3.43160001683e-18    4.96671659848e-17    3.39896357485e-17    2.15441645609e-17    4.35616283146e-17    
3.49234088897e-17    4.01645094085e-17    4.47474124773e-17    1.97871851527e-17    2.19519636312e-17    
2.91436543986e-17    4.41981486431e-17    3.7153040385e-17    5.92317693678e-17    3.48502820656e-17    
4.31165746659e-17    4.21912259094e-17    4.88601749749e-17    3.80917553635e-17    3.6942095964e-17    
3.33741076738e-17    4.7853768495e-17    2.38288604218e-17    3.66380755438e-17    3.77628104625e-17    
2.64919004086e-17    5.52462837819e-17    5.34861403475e-17    3.5379714367e-17    2.15745938727e-17    
1.60259515386e-17    3.24188229757e-17    3.41051259912e-17    5.00027249356e-17    3.69813210614e-17    
2.08136412238e-17    3.53625936217e-17    3.17626850919e-17    3.97262774927e-17    3.10454570928e-17    
3.63053149482e-17    2.78805576014e-17    4.65030376276e-17    5.42592193469e-17    4.86036186511e-17    
4.18436159254e-17    3.4698624735e-17    4.07169027059e-17    5.95101128125e-17    2.92404645943e-17    
3.08298526178e-17    4.86097960722e-17    2.50775160497e-17    1.49777460368e-17    2.96191538385e-17    
3.24315200092e-17    3.1052474969e-17    3.60635463974e-17    1.08965149097e-17    1.79307701625e-17    

0.867604430896    0.800423780629    0.797359720193    0.79728103789    0.797279485271    
0.797279485387    0.797281038061    0.797359722797    0.80042377815    0.867604448794    
0.800431182834    1.00419800697    1.00229142116    1.0021403177    1.00213672408    
1.00213672469    1.00214031853    1.00229142347    1.00419800159    0.800431170899    
0.797359898503    1.00229142144    1.00031845737    1.00016450176    1.00016085086    
1.00016085092    1.00016450162    1.00031845625    1.00229142632    0.79735989223    
0.797281041107    1.00214031771    1.00016450164    1.00001048127    1.00000682982    
1.00000682993    1.00001048222    1.00016449958    1.00214031912    0.797281032229    
0.797279485326    1.00213672462    1.00016085145    1.00000683053    1.00000317865    
1.00000317864    1.00000683047    1.00016085066    1.0021367261    0.797279479157    
0.797279485331    1.0021367247    1.00016085087    1.00000682995    1.00000317799    
1.00000317859    1.00000683043    1.00016085006    1.00213672531    0.797279476324    
0.797281041239    1.00214031851    1.00016450219    1.00001048237    1.00000683044    
1.00000683048    1.00001048223    1.00016450149    1.00214031954    0.797281034728    
0.7973598984    1.00229142461    1.0003184563    1.00016450045    1.00016084954    
1.00016084998    1.00016450074    1.00031845512    1.00229142112    0.797359880384    
0.800431182402    1.00419800253    1.00229142322    1.00214031901    1.00213672633    
1.0021367254    1.00214031977    1.00229142112    1.00419800884    0.80043118154    
0.867604450436    0.800423772904    0.797359715767    0.797281034556    0.797279480232    
0.797279481903    0.797281032553    0.797359708362    0.800423778413    0.867604430861    

1.72876562817    1.5496011612    1.54216181502    1.54196929249    1.54196536557    
1.54196536585    1.54196929289    1.54216182122    1.54960115227    1.72876566645    
1.5496170212    1.04326542733    1.02239953481    1.02186216011    1.02185166787    
1.02185167588    1.021862169    1.02239955719    1.04326538107    1.54961698906    
1.54216221879    1.02239953577    1.00115288469    1.00060820755    1.00059760452    
1.00059760472    1.00060820704    1.00115286399    1.02239957565    1.54216220334    
1.54196930021    1.02186216017    1.00060820713    1.00006340371    1.0000528066    
1.00005280706    1.00006341865    1.00060818142    1.02186217983    1.54196927846    
1.54196536573    1.02185167567    1.00059761249    1.00005281501    1.00004221062    
1.00004221058    1.00005281477    1.00059759372    1.02185169132    1.54196535034    
1.54196536574    1.02185167595    1.00059760459    1.00005280709    1.00004220247    
1.00004221041    1.0000528146    1.00059758999    1.02185168696    1.54196534368    
1.54196930053    1.02186216898    1.00060821489    1.00006341922    1.00005281457    
1.00005281476    1.00006341865    1.00060819642    1.02186218282    1.54196928427    
1.54216221876    1.02239956391    1.00115286536    1.00060818713    1.0005975841    
1.00059758968    1.0006081922    1.00115284743    1.02239953193    1.54216217292    
1.54961701731    1.04326538689    1.02239955852    1.02186217946    1.02185169267    
1.02185168722    1.02186218422    1.02239953392    1.0432654561    1.54961701717    
1.72876566993    1.54960113884    1.54216180358    1.54196928381    1.54196535286    
1.54196535681    1.54196927901    1.54216178368    1.54960115497    1.72876562809    

3.93334021098e-07    3.84259702039e-07    3.83955736651e-07    3.839475997e-07    3.83947413319e-07    
3.8394741333e-07    3.83947599714e-07    3.83955736886e-07    3.8425970121e-07    3.9333402158e-07    
3.8426000925e-07    2.32092980168e-07    2.28677508828e-07    2.28608064086e-07    2.28606826793e-07    
2.28606828132e-07    2.28608065545e-07    2.28677512455e-07    2.3209297284e-07    3.84260007437e-07    
3.83955748528e-07    2.28677508951e-07    2.25179681198e-07    2.25108507203e-07    2.25107240628e-07    
2.25107240653e-07    2.25108507137e-07    2.25179677631e-07    2.28677515273e-07    3.83955747861e-07    
3.83947600002e-07    2.28608064098e-07    2.25108507151e-07    2.25037294745e-07    2.25036028802e-07    
2.25036028863e-07    2.25037297297e-07    2.25108502841e-07    2.28608067398e-07    3.83947599079e-07    
3.8394741333e-07    2.28606828108e-07    2.25107241973e-07    2.25036030203e-07    2.25034762999e-07    
2.25034762993e-07    2.25036030171e-07    2.25107238696e-07    2.28606830668e-07    3.83947412633e-07    
3.8394741333e-07    2.28606828143e-07    2.2510724064e-07    2.25036028867e-07    2.25034761633e-07    
2.25034762972e-07    2.25036030149e-07    2.25107238127e-07    2.28606830025e-07    3.83947412393e-07    
3.83947600015e-07    2.28608065545e-07    2.25108508462e-07    2.25037297373e-07    2.25036030141e-07    
2.25036030167e-07    2.25037297295e-07    2.25108505227e-07    2.28608067862e-07    3.83947599276e-07    
3.83955748562e-07    2.28677513462e-07    2.25179677872e-07    2.25108503723e-07    2.25107237147e-07    
2.25107238084e-07    2.25108504594e-07    2.25179674821e-07    2.28677508313e-07    3.83955746346e-07    
3.84260008637e-07    2.32092973711e-07    2.28677512744e-07    2.28608067351e-07    2.2860683087e-07    
2.28606830055e-07    2.28608068073e-07    2.28677508673e-07    2.32092985001e-07    3.84260008945e-07    
3.93334021619e-07    3.84259700553e-07    3.8395573607e-07    3.8394759925e-07    3.83947412722e-07    
3.83947412867e-07    3.83947599064e-07    3.83955734944e-07    3.8425970165e-07    3.93334021096e-07    

1.99257353537    1.93597591513    1.93408542715    1.93403482487    1.93403366581    
1.93403366587    1.93403482496    1.93408542861    1.93597590998    1.99257353838    
1.93597782599    1.03890410068    1.02006214283    1.01967972155    1.01967290822    
1.01967291559    1.01967972958    1.02006216281    1.03890406018    1.93597781471    
1.93408550102    1.02006214351    1.00083416167    1.00044363281    1.00043668342    
1.00043668355    1.00044363244    1.0008341421    1.02006217833    1.93408549686    
1.93403482675    1.01967972161    1.00044363252    1.00005292188    1.00004597647    
1.00004597681    1.00005293587    1.00044360887    1.01967973978    1.93403482101    
1.93403366587    1.01967291545    1.0004366908    1.00004598416    1.00003903185    
1.00003903182    1.00004598398    1.00043667282    1.01967292955    1.93403366153    
1.93403366587    1.01967291565    1.00043668348    1.00004597683    1.00003902435    
1.0000390317    1.00004598386    1.0004366697    1.01967292601    1.93403366005    
1.93403482683    1.01967972958    1.00044363971    1.00005293629    1.00004598382    
1.00004598396    1.00005293586    1.00044362196    1.01967974234    1.93403482224    
1.93408550123    1.02006216835    1.00083414342    1.00044361371    1.00043666432    
1.00043666946    1.00044361849    1.00083412668    1.02006214    1.93408548745    
1.93597782217    1.03890406499    1.0200621644    1.01967973953    1.01967293067    
1.01967292618    1.0196797435    1.02006214198    1.03890412738    1.93597782409    
1.99257353863    1.93597590589    1.93408542354    1.93403482207    1.93403366209    
1.93403366299    1.93403482091    1.93408541654    1.93597591272    1.99257353536    

1225.93914936    1124.83649478    1120.32258625    1120.20646576    1120.20415672    
1120.20415689    1120.20646601    1120.32259007    1124.83649072    1225.93917501    
1124.84710805    1253.7966854    1247.07191201    1246.79507567    1246.78902186    
1246.78902433    1246.79507856    1247.07191953    1253.7966694    1124.84709003    
1120.32284492    1247.07191252    1240.12513526    1239.84233025    1239.83616811    
1239.83616822    1239.84232999    1240.12512927    1247.07192668    1120.32283565    
1120.20647048    1246.79507568    1239.84233003    1239.55940118    1239.55323936    
1239.55323958    1239.55940564    1239.84232191    1246.79508167    1120.20645738    
1120.2041568    1246.78902421    1239.83617058    1239.55324206    1239.54707808    
1239.54707807    1239.55324194    1239.83616537    1246.78902933    1120.20414766    
1120.20415681    1246.78902435    1239.83616814    1239.5532396    1239.54707551    
1239.54707797    1239.55324186    1239.83616389    1246.78902753    1120.20414352    
1120.20647068    1246.79507854    1239.84233241    1239.55940593    1239.55324186    
1239.55324194    1239.55940566    1239.84232735    1246.79508278    1120.20646102    
1120.32284479    1247.07192224    1240.12512964    1239.84232412    1239.83616198    
1239.83616373    1239.84232561    1240.12512423    1247.07191131    1120.32281796    
1124.84710702    1253.79667169    1247.07191959    1246.79508148    1246.78902987    
1246.78902767    1246.79508334    1247.07191177    1253.79669387    1124.84710602    
1225.93917735    1124.8364829    1120.32257964    1120.20646076    1120.20414923    
1120.20415168    1120.20645782    1120.32256846    1124.8364914    1225.93914931    

2     4     3     1     4     2     5     6     6     5     7     8     8     7     9     10     10     9     11     12     12     11     13     14     14     13     15     16     16     15     17     18     18     17     19     20     20     19     21     22     3     4     24     23     4     6     25     24     6     8     26     25     8     10     27     26     10     12     28     27     12     14     29     28     14     16     30     29     16     18     31     30     18     20     32     31     20     22     33     32     23     24     35     34     24     25     36     35     25     26     37     36     26     27     38     37     27     28     39     38     28     29     40     39     29     30     41     40     30     31     42     41     31     32     43     42     32     33     44     43     34     35     46     45     35     36     47     46     36     37     48     47     37     38     49     48     38     39     50     49     39     40     51     50     40     41     52     51     41     42     53     52     42     43     54     53     43     44     55     54     45     46     57     56     46     47     58     57     47     48     59     58     48     49     60     59     49     50     61     60     50     51     62     61     51     52     63     62     52     53     64     63     53     54     65     64     54     55     66     65     56     57     68     67     57     58     69     68     58     59     70     69     59     60     71     70     60     61     72     71     61     62     73     72     62     63     74     73     63     64     75     74     64     65     76     75     65     66     77     76     67     68     79     78     68     69     80     79     69     70     81     80     70     71     82     81     71     72     83     82     72     73     84     83     73     74     85     84     74     75     86     85     75     76     87     86     76     77     88     87     78     79     90     89     79     80     91     90     80     81     92     91     81     82     93     92     82     83     94     93     83     84     95     94     84     85     96     95     85     86     97     96     86     87     98     97     87     88     99     98     89     90     101     100     90     91     102     101     91     92     103     102     92     93     104     103     93     94     105     104     94     95     106     105     95     96     107     106     96     97     108     107     97     98     109     108     98     99     110     109     100     101     111     112     101     102     113     111     102     103     114     113     103     104     115     114     104     105     116     115     105     106     117     116     106     107     118     117     107     108     119     118     108     109     120     119     109     110     121     120     

