Title = " tecplot out file" 
variables = "x", "y", "z", "velX", "velY", "velZ","density","pressure","viscosity","temperature", "collisionFrequency",
Zone T = "nmesh0" N = 121 E = 100 DATAPACKING = BLOCK, VARLOCATION = ([4-11]=CELLCENTERED),  ZONETYPE=FEQUADRILATERAL 
0.0    
0.0    
0.1    
0.1    
0.0    

0.1    
0.0    
0.1    
0.0    
0.1    

0.0    
0.1    
0.0    
0.1    
0.0    

0.1    
0.0    
0.1    
0.0    
0.1    

0.0    
0.1    
0.2    
0.2    
0.2    

0.2    
0.2    
0.2    
0.2    
0.2    

0.2    
0.2    
0.2    
0.3    
0.3    

0.3    
0.3    
0.3    
0.3    
0.3    

0.3    
0.3    
0.3    
0.3    
0.4    

0.4    
0.4    
0.4    
0.4    
0.4    

0.4    
0.4    
0.4    
0.4    
0.4    

0.5    
0.5    
0.5    
0.5    
0.5    

0.5    
0.5    
0.5    
0.5    
0.5    

0.5    
0.6    
0.6    
0.6    
0.6    

0.6    
0.6    
0.6    
0.6    
0.6    

0.6    
0.6    
0.7    
0.7    
0.7    

0.7    
0.7    
0.7    
0.7    
0.7    

0.7    
0.7    
0.7    
0.8    
0.8    

0.8    
0.8    
0.8    
0.8    
0.8    

0.8    
0.8    
0.8    
0.8    
0.9    

0.9    
0.9    
0.9    
0.9    
0.9    

0.9    
0.9    
0.9    
0.9    
0.9    

1.0    
1.0    
1.0    
1.0    
1.0    

1.0    
1.0    
1.0    
1.0    
1.0    

1.0    
1.0    
0.9    
1.0    
0.9    
0.8    

0.8    
0.7    
0.7    
0.6    
0.6    

0.5    
0.5    
0.4    
0.4    
0.3    

0.3    
0.2    
0.2    
0.1    
0.1    

0.0    
0.0    
1.0    
0.9    
0.8    

0.7    
0.6    
0.5    
0.4    
0.3    

0.2    
0.1    
0.0    
1.0    
0.9    

0.8    
0.7    
0.6    
0.5    
0.4    

0.3    
0.2    
0.1    
0.0    
1.0    

0.9    
0.8    
0.7    
0.6    
0.5    

0.4    
0.3    
0.2    
0.1    
0.0    

1.0    
0.9    
0.8    
0.7    
0.6    

0.5    
0.4    
0.3    
0.2    
0.1    

0.0    
1.0    
0.9    
0.8    
0.7    

0.6    
0.5    
0.4    
0.3    
0.2    

0.1    
0.0    
1.0    
0.9    
0.8    

0.7    
0.6    
0.5    
0.4    
0.3    

0.2    
0.1    
0.0    
1.0    
0.9    

0.8    
0.7    
0.6    
0.5    
0.4    

0.3    
0.2    
0.1    
0.0    
1.0    

0.9    
0.8    
0.7    
0.6    
0.5    

0.4    
0.3    
0.2    
0.1    
0.0    

0.9    
1.0    
0.8    
0.7    
0.6    

0.5    
0.4    
0.3    
0.2    
0.1    

0.0    
0.0    0.0    0.0    0.0    0.0    
0.0    0.0    0.0    0.0    0.0    
0.0    0.0    0.0    0.0    0.0    
0.0    0.0    0.0    0.0    0.0    
0.0    0.0    0.0    0.0    0.0    
0.0    0.0    0.0    0.0    0.0    
0.0    0.0    0.0    0.0    0.0    
0.0    0.0    0.0    0.0    0.0    
0.0    0.0    0.0    0.0    0.0    
0.0    0.0    0.0    0.0    0.0    
0.0    0.0    0.0    0.0    0.0    
0.0    0.0    0.0    0.0    0.0    
0.0    0.0    0.0    0.0    0.0    
0.0    0.0    0.0    0.0    0.0    
0.0    0.0    0.0    0.0    0.0    
0.0    0.0    0.0    0.0    0.0    
0.0    0.0    0.0    0.0    0.0    
0.0    0.0    0.0    0.0    0.0    
0.0    0.0    0.0    0.0    0.0    
0.0    0.0    0.0    0.0    0.0    
0.0    0.0    0.0    0.0    0.0    
0.0    0.0    0.0    0.0    0.0    
0.0    0.0    0.0    0.0    0.0    
0.0    0.0    0.0    0.0    0.0    
0.0    
0.000234113539436    0.00516746836788    0.00542930952298    0.00543881052873    0.00543910117739    
0.00543910114983    0.0054388104937    0.0054293093308    0.00516746896417    0.000234113440539    
0.000662109313145    0.0110846636478    0.0114935143509    0.011507206697    0.0115075598552    
0.0115075585759    0.0115072054073    0.0114935147229    0.0110846565248    0.000662108298062    
4.29382188814e-05    0.000673739411965    0.000693654885837    0.000694260675746    0.000694274894528    
0.000694274851831    0.000694260319886    0.000693647296678    0.000673755922538    4.29383041026e-05    
1.67785837922e-06    2.30959679418e-05    2.36379096328e-05    2.36506975516e-05    2.36536044351e-05    
2.36497350039e-05    2.36516722869e-05    2.36262195292e-05    2.31071740985e-05    1.67764382528e-06    
4.98422106503e-08    5.78358689708e-07    5.91449457998e-07    5.91325845728e-07    5.9154467584e-07    
5.91239871629e-07    5.91234838312e-07    5.84465433443e-07    5.85625765087e-07    4.95089671574e-08    
-4.92262874862e-08    -5.83016515681e-07    -5.89722507607e-07    -5.90177675467e-07    -5.90202796066e-07    
-5.91500322927e-07    -5.91734976372e-07    -5.96858283777e-07    -5.75188938666e-07    -4.94950801203e-08    
-1.67728919363e-06    -2.31038391113e-05    -2.3635955758e-05    -2.36516421631e-05    -2.36520052703e-05    
-2.36520412567e-05    -2.36519069624e-05    -2.36425062412e-05    -2.30956172373e-05    -1.67750065682e-06    
-4.29380305377e-05    -0.000673752502156    -0.000693649470431    -0.000694255431455    -0.00069426972324    
-0.00069427069419    -0.000694256667042    -0.000693656086702    -0.000673731870041    -4.29372224003e-05    
-0.000662107706529    -0.0110846553342    -0.0114935129707    -0.011507208297    -0.0115075589752    
-0.0115075614356    -0.0115072059427    -0.0114935216732    -0.0110846620391    -0.000662109432423    
-0.000234113430386    -0.00516746929966    -0.00542930977898    -0.00543881073826    -0.00543910146669    
-0.00543910139017    -0.00543881085198    -0.0054293105751    -0.00516746843452    -0.000234113542823    

-0.000233013260917    -0.000661937024012    -4.2887190771e-05    -1.67546475348e-06    -4.97794141494e-08    
4.91181331811e-08    1.67483573215e-06    4.28866033397e-05    0.000661935393013    0.000233013169753    
-0.005167326957    -0.011084886033    -0.000673744290433    -2.30958683826e-05    -5.75494326119e-07    
5.83285690508e-07    2.31038106972e-05    0.000673756314588    0.0110848769153    0.00516732813373    
-0.00542930073681    -0.0114935220338    -0.000693659161783    -2.36383204697e-05    -5.92780389139e-07    
5.89556161103e-07    2.36344252231e-05    0.000693647105533    0.0114935242577    0.00542930100951    
-0.00543881018656    -0.0115072066666    -0.000694260734004    -2.3650523014e-05    -5.88590727097e-07    
5.9045681629e-07    2.36514073238e-05    0.000694254350083    0.0115072084222    0.00543881070712    
-0.00543910114157    -0.0115075583997    -0.000694277692199    -2.36527100779e-05    -5.91575247862e-07    
5.91339328768e-07    2.3651830653e-05    0.000694268724015    0.011507559361    0.00543910152938    
-0.0054391011405    -0.0115075583956    -0.000694274861407    -2.3649596018e-05    -5.88464429768e-07    
5.91744385138e-07    2.36519647699e-05    0.000694270610314    0.0115075612292    0.00543910169333    
-0.0054388101536    -0.0115072054817    -0.000694263284163    -2.36521324072e-05    -5.91382192662e-07    
5.91578381478e-07    2.36516896019e-05    0.000694254737566    0.0115072065461    0.00543881058166    
-0.00542930061302    -0.0114935249429    -0.000693650757717    -2.36289013584e-05    -5.83310567565e-07    
5.9693243129e-07    2.36416677592e-05    0.000693656149306    0.0114935287918    0.00542930205981    
-0.00516732744485    -0.011084881605    -0.000673753073621    -2.31067810655e-05    -5.85423935255e-07    
5.7510276616e-07    2.30958459633e-05    0.000673735743449    0.0110848850648    0.00516732700564    
-0.000233013149885    -0.000661935834538    -4.2886963895e-05    -1.67506884613e-06    -4.93990607161e-08    
4.956145491e-08    1.67510427546e-06    4.28860696474e-05    0.000661937089899    0.000233013264492    

1.52162018978e-17    2.58817318244e-17    4.38103316672e-17    3.65505696578e-17    4.30370199027e-17    
3.46079122876e-17    3.57938930176e-17    5.32910904272e-17    3.0912977218e-17    4.17645779397e-17    
5.29014811221e-18    3.37980074135e-17    4.47714118848e-17    3.75454713023e-17    2.95172170777e-17    
4.6945821797e-17    2.64838605799e-17    3.05730028466e-17    4.42042104721e-17    1.65549314987e-17    
8.25908501341e-18    3.66658615462e-17    3.32619125594e-17    4.34466626619e-17    3.30561433811e-17    
4.38500448574e-17    3.4193562373e-17    2.89864522956e-17    5.54880586779e-17    2.45146486952e-17    
1.32233577538e-17    2.97593630089e-17    2.61291878994e-17    3.15761822623e-17    4.10365164132e-17    
3.55832251379e-17    3.36701241966e-17    3.37176999218e-17    3.20151919998e-17    4.0571993509e-17    
1.37426390701e-17    3.58198169848e-17    3.75382178886e-17    4.6864411009e-17    3.39410213903e-17    
1.62798963814e-17    4.59935818082e-17    3.6700330623e-17    3.27924768552e-17    3.73173783693e-17    
2.25258403078e-17    3.05203182841e-17    3.96112118564e-17    2.93578752144e-17    3.75774203722e-17    
4.04656815151e-17    2.5842905517e-17    2.31348058065e-17    3.68036168099e-17    3.02554489678e-17    
1.72853029047e-17    4.87617714608e-17    2.68225921317e-17    3.52082456801e-17    1.62096192938e-17    
5.01399259622e-17    2.71361198413e-17    3.57806032565e-17    6.01008723967e-17    2.95492168653e-17    
4.06977976257e-17    4.6828422992e-17    5.57657151777e-17    1.97629014368e-17    5.23157270587e-17    
3.14938858861e-17    3.70201049322e-17    1.51014420619e-17    3.77215136879e-17    1.95675859805e-17    
2.57582316157e-17    3.73465901725e-17    3.8390231535e-17    2.51776287776e-17    5.4769505448e-17    
4.34548807121e-17    5.63504182353e-17    4.06410999419e-17    5.47610314673e-17    1.68447690993e-17    
2.80882372881e-17    4.14087551103e-17    3.15452882039e-17    5.07925597173e-18    2.19215847404e-17    
1.71884943036e-17    2.18026202535e-17    9.9777865296e-18    2.2494522987e-17    4.20516997815e-17    

0.859173324266    0.778603441726    0.77377633548    0.773599653549    0.773594600202    
0.773594600478    0.773599653981    0.773776338957    0.778603437496    0.859173343197    
0.778610834755    1.00499574395    1.00302999846    1.00262098701    1.00260468269    
1.0026046833    1.00262098803    1.00303000001    1.00499573892    0.77861081911    
0.773776630437    1.00302999892    1.00088785009    1.00046436216    1.00044759248    
1.00044759262    1.00046436187    1.00088784928    1.00303000346    0.77377662389    
0.773599661968    1.00262098703    1.00046436198    1.00004036469    1.00002358356    
1.00002358376    1.00004036533    1.00046435989    1.00262098867    0.773599651489    
0.773594600519    1.00260468317    1.00044759308    1.00002358435    1.00000680279    
1.00000680278    1.00002358421    1.00044759218    1.00260468479    0.773594593033    
0.773594600535    1.00260468335    1.00044759258    1.00002358383    1.00000680213    
1.0000068027    1.00002358416    1.00044759176    1.00260468397    0.773594589716    
0.773599662327    1.00262098805    1.00046436244    1.00004036563    1.00002358414    
1.00002358423    1.00004036534    1.0004643617    1.00262098873    0.77359965417    
0.773776631402    1.00303000135    1.00088784927    1.00046436077    1.00044759106    
1.00044759159    1.00046436096    1.0008878479    1.00302999848    0.773776608404    
0.778610832708    1.00499574    1.00303000018    1.00262098845    1.00260468498    
1.00260468415    1.00262098891    1.00302999834    1.004995746    0.778610833483    
0.859173345203    0.778603431245    0.773776330578    0.773599649532    0.773594594338    
0.773594596105    0.773599647137    0.773776320118    0.778603439725    0.859173324123    

1.71750604024    1.54153572169    1.53109607523    1.53070771036    1.53069631043    
1.53069631104    1.5307077113    1.5310960827    1.54153571114    1.7175060785    
1.54155082011    1.07025042604    1.03715023619    1.03577621413    1.03573400978    
1.03573401861    1.03577622445    1.03715025747    1.07025037879    1.54155078509    
1.5310966987    1.03715023916    1.0029689189    1.00156372537    1.00152088992    
1.00152089033    1.0015637246    1.0029688969    1.03715028062    1.53109668491    
1.53070772887    1.03577621437    1.00156372488    1.00015788677    1.00011505318    
1.00011505399    1.00015790245    1.00156369666    1.0357762364    1.5307077065    
1.53069631116    1.03573401832    1.00152089881    1.0001150626    1.00007222168    
1.00007222172    1.00011506225    1.00152087766    1.03573403557    1.53069629508    
1.53069631119    1.03573401881    1.00152089035    1.00011505409    1.00007221281    
1.00007222149    1.00011506203    1.00152087417    1.03573403091    1.53069628807    
1.53070772966    1.03577622465    1.00156373321    1.00015790341    1.00011506182    
1.00011506222    1.00015790248    1.00156371256    1.03577623869    1.5307077121    
1.53109670108    1.03715026659    1.00296889832    1.00156370266    1.00152086716    
1.00152087357    1.00156370814    1.00296887786    1.03715023468    1.53109665085    
1.54155081425    1.07025038512    1.03715026082    1.03577623577    1.03573403691    
1.03573403145    1.03577624008    1.03715023513    1.07025045795    1.5415508172    
1.71750608257    1.54153569759    1.53109606462    1.53070770166    1.53069629782    
1.53069630156    1.53070769654    1.53109604126    1.54153571727    1.71750603994    

3.94364712688e-07    3.9130200565e-07    3.91119394468e-07    3.9111137287e-07    3.9111108292e-07    
3.91111082932e-07    3.91111372887e-07    3.9111939459e-07    3.91302005202e-07    3.94364712766e-07    
3.91302100469e-07    2.36791464429e-07    2.31208266957e-07    2.31036441858e-07    2.31031859683e-07    
2.31031861165e-07    2.31036443533e-07    2.31208270513e-07    2.3679145692e-07    3.91302099638e-07    
3.91119402708e-07    2.31208267409e-07    2.25406558715e-07    2.25227918256e-07    2.25223173646e-07    
2.25223173697e-07    2.25227918169e-07    2.25406554857e-07    2.31208274048e-07    3.91119402536e-07    
3.91111373253e-07    2.31036441899e-07    2.25227918199e-07    2.25049068524e-07    2.25044320446e-07    
2.25044320556e-07    2.25049071264e-07    2.25227913441e-07    2.31036445574e-07    3.91111372914e-07    
3.91111082941e-07    2.31031861136e-07    2.25223175158e-07    2.25044322019e-07    2.250395725e-07    
2.25039572507e-07    2.2504432198e-07    2.25223171467e-07    2.3103186395e-07    3.91111082678e-07    
3.91111082941e-07    2.31031861191e-07    2.25223173708e-07    2.25044320563e-07    2.25039571002e-07    
2.25039572481e-07    2.2504432195e-07    2.25223170908e-07    2.31031863262e-07    3.91111082586e-07    
3.91111373269e-07    2.31036443567e-07    2.25227919633e-07    2.25049071385e-07    2.25044321915e-07    
2.25044321971e-07    2.25049071269e-07    2.25227916006e-07    2.31036445975e-07    3.91111372976e-07    
3.91119402806e-07    2.31208271908e-07    2.25406555116e-07    2.25227914371e-07    2.2522316976e-07    
2.2522317083e-07    2.25227915336e-07    2.25406551643e-07    2.31208266681e-07    3.9111940183e-07    
3.91302100097e-07    2.36791457849e-07    2.31208271085e-07    2.31036445501e-07    2.31031864156e-07    
2.31031863326e-07    2.31036446192e-07    2.3120826679e-07    2.36791469758e-07    3.91302100388e-07    
3.94364712777e-07    3.91302004961e-07    3.9111939428e-07    3.91111372715e-07    3.91111082712e-07    
3.91111082762e-07    3.91111372635e-07    3.91119393728e-07    3.91302005555e-07    3.94364712686e-07    

1.99902160802    1.97987272991    1.97873210258    1.97868200088    1.9786801899    
1.97868018997    1.97868200099    1.97873210334    1.97987272712    1.9990216085    
1.97987332221    1.0649303069    1.03401716576    1.03306855486    1.03304325988    
1.03304326806    1.03306856411    1.0340171854    1.06493026521    1.97987331701    
1.97873215405    1.03401716826    1.00207922277    1.00109885295    1.00107281725    
1.00107281753    1.00109885247    1.0020792016    1.03401720492    1.97873215297    
1.97868200327    1.03306855509    1.00109885263    1.00011751734    1.00009146746    
1.00009146807    1.00011753237    1.00109882652    1.03306857537    1.97868200115    
1.97868019003    1.03304326791    1.00107282555    1.0000914761    1.00006541845    
1.00006541849    1.00009147588    1.0010728053    1.03304328344    1.97868018839    
1.97868019003    1.03304326821    1.00107281759    1.00009146811    1.00006541023    
1.00006541835    1.00009147572    1.00107280223    1.03304327964    1.97868018781    
1.97868200337    1.03306856429    1.0010988605    1.00011753304    1.00009147552    
1.00009147583    1.0001175324    1.0010988406    1.03306857759    1.97868200154    
1.97873215466    1.0340171931    1.00207920302    1.00109883163    1.00107279593    
1.0010728018    1.00109883692    1.00207918396    1.03401716424    1.97873214856    
1.97987331988    1.06493027037    1.03401718856    1.03306857497    1.03304328457    
1.03304327999    1.03306857878    1.03401716484    1.06493033649    1.9798733217    
1.99902160857    1.97987272561    1.9787321014    1.97868199991    1.9786801886    
1.97868018891    1.97868199941    1.97873209796    1.97987272932    1.999021608    

1214.77132618    1098.84345554    1091.91139501    1091.65681916    1091.64949835    
1091.64949875    1091.65681979    1091.9114    1098.84344928    1214.771353    
1098.85395178    1260.7055736    1251.21694996    1250.48864631    1250.46249374    
1250.46249639    1250.48864971    1251.2169564    1260.70555792    1098.85392916    
1091.91181664    1251.21695111    1241.12416937    1240.36833584    1240.34141586    
1240.34141609    1240.36833537    1241.12416338    1251.2169652    1091.91180728    
1091.6568313    1250.48864639    1240.36833555    1239.61165559    1239.58471968    
1239.58472007    1239.61165993    1240.36832681    1250.48865309    1091.65681629    
1091.64949881    1250.46249619    1240.34141856    1239.58472269    1239.55778449    
1239.55778449    1239.58472247    1240.34141268    1250.46250179    1091.64948808    
1091.64949884    1250.46249648    1240.34141606    1239.58472017    1239.55778174    
1239.55778435    1239.58472237    1240.34141143    1250.46249989    1091.64948334    
1091.65683181    1250.48864977    1240.36833797    1239.61166045    1239.5847223    
1239.58472248    1239.61165994    1240.36833236    1250.48865368    1091.65682011    
1091.91181806    1251.21695985    1241.12416371    1240.36832911    1240.34140908    
1240.34141112    1240.36833059    1241.12415752    1251.21694964    1091.91178497    
1098.85394865    1260.70556043    1251.21695735    1250.48865273    1250.46250229    
1250.4625002    1250.48865418    1251.2169496    1260.70558283    1098.85394994    
1214.77135585    1098.8434403    1091.91138797    1091.65681339    1091.64948994    
1091.64949247    1091.65680996    1091.91137285    1098.84345265    1214.77132598    

2     4     3     1     4     2     5     6     6     5     7     8     8     7     9     10     10     9     11     12     12     11     13     14     14     13     15     16     16     15     17     18     18     17     19     20     20     19     21     22     3     4     24     23     4     6     25     24     6     8     26     25     8     10     27     26     10     12     28     27     12     14     29     28     14     16     30     29     16     18     31     30     18     20     32     31     20     22     33     32     23     24     35     34     24     25     36     35     25     26     37     36     26     27     38     37     27     28     39     38     28     29     40     39     29     30     41     40     30     31     42     41     31     32     43     42     32     33     44     43     34     35     46     45     35     36     47     46     36     37     48     47     37     38     49     48     38     39     50     49     39     40     51     50     40     41     52     51     41     42     53     52     42     43     54     53     43     44     55     54     45     46     57     56     46     47     58     57     47     48     59     58     48     49     60     59     49     50     61     60     50     51     62     61     51     52     63     62     52     53     64     63     53     54     65     64     54     55     66     65     56     57     68     67     57     58     69     68     58     59     70     69     59     60     71     70     60     61     72     71     61     62     73     72     62     63     74     73     63     64     75     74     64     65     76     75     65     66     77     76     67     68     79     78     68     69     80     79     69     70     81     80     70     71     82     81     71     72     83     82     72     73     84     83     73     74     85     84     74     75     86     85     75     76     87     86     76     77     88     87     78     79     90     89     79     80     91     90     80     81     92     91     81     82     93     92     82     83     94     93     83     84     95     94     84     85     96     95     85     86     97     96     86     87     98     97     87     88     99     98     89     90     101     100     90     91     102     101     91     92     103     102     92     93     104     103     93     94     105     104     94     95     106     105     95     96     107     106     96     97     108     107     97     98     109     108     98     99     110     109     100     101     111     112     101     102     113     111     102     103     114     113     103     104     115     114     104     105     116     115     105     106     117     116     106     107     118     117     107     108     119     118     108     109     120     119     109     110     121     120     

