Title = " tecplot out file" 
variables = "x", "y", "z", "velX", "velY", "velZ","density","pressure","viscosity","temperature", "collisionFrequency",
Zone T = "nmesh0" N = 121 E = 100 DATAPACKING = BLOCK, VARLOCATION = ([4-11]=CELLCENTERED),  ZONETYPE=FEQUADRILATERAL 
0.0    
0.0    
0.1    
0.1    
0.0    

0.1    
0.0    
0.1    
0.0    
0.1    

0.0    
0.1    
0.0    
0.1    
0.0    

0.1    
0.0    
0.1    
0.0    
0.1    

0.0    
0.1    
0.2    
0.2    
0.2    

0.2    
0.2    
0.2    
0.2    
0.2    

0.2    
0.2    
0.2    
0.3    
0.3    

0.3    
0.3    
0.3    
0.3    
0.3    

0.3    
0.3    
0.3    
0.3    
0.4    

0.4    
0.4    
0.4    
0.4    
0.4    

0.4    
0.4    
0.4    
0.4    
0.4    

0.5    
0.5    
0.5    
0.5    
0.5    

0.5    
0.5    
0.5    
0.5    
0.5    

0.5    
0.6    
0.6    
0.6    
0.6    

0.6    
0.6    
0.6    
0.6    
0.6    

0.6    
0.6    
0.7    
0.7    
0.7    

0.7    
0.7    
0.7    
0.7    
0.7    

0.7    
0.7    
0.7    
0.8    
0.8    

0.8    
0.8    
0.8    
0.8    
0.8    

0.8    
0.8    
0.8    
0.8    
0.9    

0.9    
0.9    
0.9    
0.9    
0.9    

0.9    
0.9    
0.9    
0.9    
0.9    

1.0    
1.0    
1.0    
1.0    
1.0    

1.0    
1.0    
1.0    
1.0    
1.0    

1.0    
1.0    
0.9    
1.0    
0.9    
0.8    

0.8    
0.7    
0.7    
0.6    
0.6    

0.5    
0.5    
0.4    
0.4    
0.3    

0.3    
0.2    
0.2    
0.1    
0.1    

0.0    
0.0    
1.0    
0.9    
0.8    

0.7    
0.6    
0.5    
0.4    
0.3    

0.2    
0.1    
0.0    
1.0    
0.9    

0.8    
0.7    
0.6    
0.5    
0.4    

0.3    
0.2    
0.1    
0.0    
1.0    

0.9    
0.8    
0.7    
0.6    
0.5    

0.4    
0.3    
0.2    
0.1    
0.0    

1.0    
0.9    
0.8    
0.7    
0.6    

0.5    
0.4    
0.3    
0.2    
0.1    

0.0    
1.0    
0.9    
0.8    
0.7    

0.6    
0.5    
0.4    
0.3    
0.2    

0.1    
0.0    
1.0    
0.9    
0.8    

0.7    
0.6    
0.5    
0.4    
0.3    

0.2    
0.1    
0.0    
1.0    
0.9    

0.8    
0.7    
0.6    
0.5    
0.4    

0.3    
0.2    
0.1    
0.0    
1.0    

0.9    
0.8    
0.7    
0.6    
0.5    

0.4    
0.3    
0.2    
0.1    
0.0    

0.9    
1.0    
0.8    
0.7    
0.6    

0.5    
0.4    
0.3    
0.2    
0.1    

0.0    
0.0    0.0    0.0    0.0    0.0    
0.0    0.0    0.0    0.0    0.0    
0.0    0.0    0.0    0.0    0.0    
0.0    0.0    0.0    0.0    0.0    
0.0    0.0    0.0    0.0    0.0    
0.0    0.0    0.0    0.0    0.0    
0.0    0.0    0.0    0.0    0.0    
0.0    0.0    0.0    0.0    0.0    
0.0    0.0    0.0    0.0    0.0    
0.0    0.0    0.0    0.0    0.0    
0.0    0.0    0.0    0.0    0.0    
0.0    0.0    0.0    0.0    0.0    
0.0    0.0    0.0    0.0    0.0    
0.0    0.0    0.0    0.0    0.0    
0.0    0.0    0.0    0.0    0.0    
0.0    0.0    0.0    0.0    0.0    
0.0    0.0    0.0    0.0    0.0    
0.0    0.0    0.0    0.0    0.0    
0.0    0.0    0.0    0.0    0.0    
0.0    0.0    0.0    0.0    0.0    
0.0    0.0    0.0    0.0    0.0    
0.0    0.0    0.0    0.0    0.0    
0.0    0.0    0.0    0.0    0.0    
0.0    0.0    0.0    0.0    0.0    
0.0    
0.000132279245164    0.00328416708285    0.00350449880702    0.00351469423524    0.00351508759518    
0.00351508756583    0.00351469419693    0.00350449867181    0.00328416754218    0.000132279288213    
0.000655686091559    0.0140827909912    0.0147884652843    0.014819525316    0.0148205631994    
0.0148205618705    0.0148195239428    0.0147884650401    0.0140827847001    0.000655685592515    
5.30651972196e-05    0.00115248910443    0.00119817497332    0.00119996334265    0.00120001636194    
0.00120001630424    0.00119996286292    0.00119816718853    0.00115250567309    5.30657114608e-05    
2.5446432775e-06    5.17679879873e-05    5.33283020276e-05    5.33815684185e-05    5.33857058822e-05    
5.33817341856e-05    5.33824280658e-05    5.33158636205e-05    5.17800661292e-05    2.54473411466e-06    
9.08712525643e-08    1.66697259375e-06    1.70635558544e-06    1.70702300808e-06    1.70734145793e-06    
1.70692023096e-06    1.70689465282e-06    1.69879850448e-06    1.67494207793e-06    9.08811700444e-08    
-9.08171109527e-08    -1.67211044355e-06    -1.70445260288e-06    -1.70586206442e-06    -1.70591871132e-06    
-1.70727675904e-06    -1.70755824739e-06    -1.71211570432e-06    -1.66371035123e-06    -9.08003049573e-08    
-2.54465115497e-06    -5.17765669651e-05    -5.33260778595e-05    -5.33823415163e-05    -5.33839052086e-05    
-5.33839586066e-05    -5.33827021865e-05    -5.3333013435e-05    -5.17673165456e-05    -2.54451940274e-06    
-5.3065655189e-05    -0.00115250160138    -0.00119816923314    -0.00119995779668    -0.00120001092685    
-0.00120001200048    -0.00119995922435    -0.0011981763635    -0.00115248126199    -5.30648373063e-05    
-0.000655685437465    -0.014082783339    -0.0147884639398    -0.0148195269864    -0.0148205625187    
-0.0148205648365    -0.0148195247826    -0.0147884729292    -0.0140827893019    -0.000655686414038    
-0.000132279272854    -0.00328416764364    -0.00350449881999    -0.00351469426177    -0.00351508763943    
-0.00351508762517    -0.00351469430407    -0.00350449936819    -0.0032841669828    -0.000132279247307    

-0.00013266097624    -0.000655666327863    -5.30209032262e-05    -2.54187292906e-06    -9.0771443159e-08    
9.06767875336e-08    2.5418182479e-06    5.30210015643e-05    0.000655665689478    0.000132661004754    
-0.00328411033592    -0.0140831012569    -0.00115249850976    -5.17679615983e-05    -1.66397796919e-06    
1.67247684729e-06    5.17765864692e-05    0.0011525098685    0.0140830928155    0.00328411098969    
-0.00350449279109    -0.0147884795403    -0.00119817969492    -5.33288721856e-05    -1.70774101697e-06    
1.70423256499e-06    5.33244195335e-05    0.00119816737372    0.0147884816801    0.00350449275243    
-0.00351469389882    -0.0148195254781    -0.00119996343853    -5.33813644132e-05    -1.70418302059e-06    
1.70624169555e-06    5.33820245112e-05    0.00119995668806    0.0148195273049    0.00351469403477    
-0.00351508755355    -0.0148205616472    -0.00120001925843    -5.3384890342e-05    -1.70735273181e-06    
1.70707669758e-06    5.33836939747e-05    0.00120001008376    0.0148205627763    0.00351508766007    
-0.00351508755211    -0.01482056165    -0.00120001633135    -5.33815778295e-05    -1.70403190007e-06    
1.70761047415e-06    5.33838643954e-05    0.00120001187582    0.0148205645337    0.00351508772374    
-0.00351469386137    -0.0148195242366    -0.00119996600724    -5.33830496354e-05    -1.70707362317e-06    
1.70736471889e-06    5.33824281176e-05    0.00119995736753    0.0148195255169    0.00351469400115    
-0.00350449263784    -0.0147884818631    -0.00119817094032    -5.33186706182e-05    -1.69744972467e-06    
1.71222256512e-06    5.33322082264e-05    0.00119817664537    0.0147884865343    0.00350449339792    
-0.00328411074913    -0.0140830977516    -0.00115250755778    -5.17796115093e-05    -1.67475778202e-06    
1.66359653631e-06    5.17676015317e-05    0.00115248968071    0.014083100215    0.00328411023735    
-0.000132661010587    -0.000655665843871    -5.30210366268e-05    -2.54188386008e-06    -9.0758532184e-08    
9.07226157702e-08    2.54171779745e-06    5.30202222771e-05    0.00065566666196    0.000132660978582    

3.49654745502e-17    2.22959411234e-17    4.11177811625e-17    3.05393767445e-17    2.93571341889e-17    
3.87062716559e-17    1.91166609478e-17    2.51041289621e-17    2.73083496778e-17    3.65927920069e-17    
3.55636162463e-17    2.96056501832e-17    3.18998855377e-17    2.38738737764e-17    2.39841635932e-17    
3.08780843384e-17    1.31887911841e-17    2.81972715046e-17    2.78574729586e-17    3.37881548789e-17    
1.02000453597e-17    4.14065909494e-17    2.41725485165e-17    5.25626028424e-17    2.63633002721e-17    
4.77072413877e-17    4.77466191811e-17    3.74684697206e-17    3.00219107764e-17    4.60018891915e-17    
8.84450427841e-18    3.51131004615e-17    2.8237416355e-17    4.77888646201e-17    2.12777675609e-17    
3.73781677895e-17    3.27663737102e-17    4.23618629304e-17    2.77105165929e-17    2.45726419475e-17    
1.75486985669e-17    4.17678004017e-17    3.79682099162e-17    4.72325965122e-17    2.51317682416e-17    
2.92606421955e-17    3.42003229759e-17    2.58923547063e-17    3.4487187653e-17    4.01978858155e-17    
1.66248778006e-17    4.15106479227e-17    2.95117649112e-17    4.57660965554e-17    4.28527735933e-17    
4.30160717653e-17    4.66004567279e-17    4.27908050779e-17    2.57598384308e-17    4.5380940274e-17    
2.57237586119e-17    2.53196844877e-17    3.0087453897e-17    2.91384707058e-17    3.99760930432e-17    
5.72668024951e-17    2.29640092414e-17    3.69884856889e-17    5.25885529593e-17    1.89860745574e-18    
2.19204506589e-17    5.17254118636e-17    2.39837524808e-17    3.88908375859e-17    4.5825270585e-17    
1.82921100958e-17    3.83245932683e-17    3.42947851948e-17    4.61511788759e-17    3.78463812202e-17    
2.73828683085e-17    6.46025313759e-18    5.42171282411e-17    2.78633312994e-17    2.94495294829e-17    
2.44606122441e-17    2.57866950547e-17    4.10734110517e-17    3.01971948119e-17    2.53706926045e-17    
9.76254236992e-18    3.03126340323e-17    2.94051397495e-17    4.57387360511e-17    9.19084347494e-18    
2.15329887801e-17    1.80898070404e-17    2.55686047526e-17    3.1535670445e-17    2.22673645089e-17    

0.854307205298    0.770936821579    0.764731422688    0.764450852062    0.764441008288    
0.764441008708    0.76445085275    0.764731426603    0.770936816263    0.854307222643    
0.770943906454    1.00511416794    1.00347609423    1.00277904248    1.00274170018    
1.00274170076    1.0027790436    1.00347609501    1.00511416343    0.7709438897    
0.764731795079    1.00347609447    1.0015538656    1.00082215582    1.00078333905    
1.00078333924    1.00082215541    1.0015538651    1.00347609842    0.764731789437    
0.764450865532    1.00277904252    1.0008221556    1.00008884735    1.00004998414    
1.00004998441    1.00008884767    1.00082215361    1.00277904425    0.764450855251    
0.764441008915    1.00274170059    1.00078333962    1.00004998496    1.00001112082    
1.00001112081    1.00004998475    1.00078333867    1.00274170222    0.764441001406    
0.764441008947    1.00274170086    1.00078333923    1.00004998453    1.0000111202    
1.00001112071    1.0000499847    1.00078333845    1.00274170142    0.764440998112    
0.764450866125    1.00277904365    1.00082215595    1.00008884808    1.00004998465    
1.00004998478    1.00008884766    1.00082215519    1.00277904397    0.76445085767    
0.764731797    1.00347609611    1.00155386507    1.00082215447    1.00078333763    
1.00078333821    1.00082215453    1.00155386361    1.00347609392    0.764731772479    
0.770943903199    1.00511416458    1.00347609552    1.00277904394    1.00274170236    
1.00274170169    1.00277904408    1.00347609397    1.00511416996    0.77094390572    
0.854307224764    0.770936810111    0.764731418272    0.764450848163    0.764441002668    
0.764441004262    0.764450845714    0.764731406164    0.770936820335    0.854307205069    

1.70817982154    1.53229698765    1.51925913339    1.51866265187    1.51864133972    
1.51864134062    1.51866265333    1.51925914153    1.53229697553    1.70817985614    
1.53231124795    1.09141972255    1.04918644772    1.04687763272    1.04678505875    
1.04678506786    1.04687764373    1.04918646658    1.09141967736    1.53231121241    
1.51925990172    1.04918645245    1.00505061818    1.0026707632    1.00257641246    
1.00257641306    1.00267076225    1.00505059602    1.04918649282    1.51925989066    
1.51866268047    1.04687763319    1.00267076266    1.00028915543    1.00019480244    
1.00019480353    1.00028917089    1.00267073376    1.04687765609    1.51866265955    
1.51864134109    1.04678506751    1.00257642172    1.00019481229    1.00010045374    
1.00010045385    1.00019481184    1.00257639945    1.04678508506    1.51864132576    
1.51864134116    1.04678506818    1.00257641322    1.00019480371    1.0001004447    
1.00010045357    1.00019481159    1.0025763965    1.04678508052    1.51864131905    
1.51866268174    1.0468776442    1.00267077108    1.00028917216    1.00019481121    
1.0001948118    1.00028917095    1.00267074943    1.04687765745    1.51866266441    
1.51925990613    1.04918647745    1.00505059753    1.00267073966    1.00257638883    
1.00257639567    1.00267074523    1.00505057603    1.04918644759    1.51925985491    
1.53231124005    1.0914196838    1.04918647169    1.0468776552    1.04678508625    
1.0467850813    1.04687765864    1.04918644634    1.09141975505    1.53231124662    
1.7081798604    1.53229696293    1.51925912446    1.51866264396    1.5186413283    
1.51864133154    1.51866263892    1.51925909865    1.53229698534    1.70817982107    

3.94439765299e-07    3.92535058274e-07    3.923877562e-07    3.92379576701e-07    3.92379209105e-07    
3.92379209117e-07    3.92379576721e-07    3.92387756277e-07    3.92535057952e-07    3.94439765285e-07    
3.92535095325e-07    2.4055521048e-07    2.33295225937e-07    2.33010411278e-07    2.33000749382e-07    
2.33000750915e-07    2.33010413052e-07    2.33295229185e-07    2.40555203286e-07    3.92535094861e-07    
3.92387762166e-07    2.33295226744e-07    2.2566381045e-07    2.25364262859e-07    2.2535416502e-07    
2.25354165094e-07    2.25364262762e-07    2.2566380651e-07    2.3329523327e-07    3.92387762198e-07    
3.92379577087e-07    2.33010411355e-07    2.25364262803e-07    2.25064155292e-07    2.25054043293e-07    
2.25054043443e-07    2.2506415805e-07    2.25364257902e-07    2.33010415157e-07    3.92379576983e-07    
3.92379209131e-07    2.33000750884e-07    2.25354166601e-07    2.25054044939e-07    2.25043931202e-07    
2.25043931224e-07    2.25054044894e-07    2.2535416272e-07    2.3300075374e-07    3.92379209044e-07    
3.92379209132e-07    2.33000750954e-07    2.25354165126e-07    2.25054043453e-07    2.25043929668e-07    
2.25043931193e-07    2.25054044858e-07    2.25354162224e-07    2.33000753073e-07    3.92379209009e-07    
3.92379577106e-07    2.33010413126e-07    2.25364264272e-07    2.25064158208e-07    2.25054044798e-07    
2.25054044882e-07    2.25064158064e-07    2.25364260468e-07    2.33010415457e-07    3.92379576994e-07    
3.92387762291e-07    2.33295230937e-07    2.2566380679e-07    2.25364258821e-07    2.25354160976e-07    
2.25354162117e-07    2.25364259823e-07    2.25663803147e-07    2.33295225972e-07    3.92387761767e-07    
3.9253509503e-07    2.40555204214e-07    2.33295230011e-07    2.33010415055e-07    2.3300075393e-07    
2.33000753163e-07    2.33010415649e-07    2.33295225737e-07    2.4055521589e-07    3.92535095352e-07    
3.94439765289e-07    3.92535057875e-07    3.92387756169e-07    3.92379576666e-07    3.92379209052e-07    
3.92379209066e-07    3.92379576629e-07    3.92387755801e-07    3.92535058308e-07    3.94439765298e-07    

1.99949129651    1.98757789842    1.98665712996    1.98660600322    1.98660370553    
1.98660370561    1.98660600334    1.98665713044    1.98757789641    1.99949129642    
1.98757813003    1.08586641932    1.04555201041    1.04397637802    1.04392293505    
1.04392294353    1.04397638783    1.04555202839    1.08586637923    1.98757812713    
1.98665716725    1.04555201488    1.00349132752    1.00184708878    1.00179166992    
1.00179167033    1.00184708825    1.00349130589    1.04555205099    1.98665716745    
1.98660600563    1.04397637845    1.00184708847    1.00020029029    1.00014481106    
1.00014481189    1.00020030542    1.00184706158    1.04397639947    1.98660600498    
1.98660370569    1.04392294336    1.0017916786    1.00014482009    1.00008933192    
1.00008933204    1.00014481984    1.0017916573    1.04392295916    1.98660370515    
1.9866037057    1.04392294375    1.00179167051    1.00014481194    1.0000893235    
1.00008933187    1.00014481965    1.00179165458    1.04392295547    1.98660370493    
1.98660600575    1.04397638824    1.00184709653    1.00020030628    1.00014481932    
1.00014481978    1.00020030549    1.00184707566    1.04397640113    1.98660600505    
1.98665716803    1.04555203808    1.00349130743    1.00184706662    1.00179164773    
1.00179165399    1.00184707212    1.00349128743    1.04555201061    1.98665716475    
1.98757812818    1.0858663844    1.04555203295    1.04397639891    1.04392296021    
1.04392295597    1.0439764022    1.04555200931    1.08586644947    1.9875781302    
1.99949129644    1.98757789592    1.98665712976    1.986606003    1.9866037052    
1.98660370529    1.98660600277    1.98665712747    1.98757789863    1.9994912965    

1207.94511678    1088.82680518    1079.96757223    1079.56606651    1079.55192779    
1079.55192839    1079.56606749    1079.9675778    1088.82679746    1207.9451413    
1088.83683555    1265.5267693    1254.41467902    1253.184173    1253.12531709    
1253.12531976    1253.18417663    1254.4146841    1265.52675474    1088.83681159    
1079.96810198    1254.41468033    1242.28237813    1240.98807864    1240.92690428    
1240.92690461    1240.988078    1242.28237243    1254.41469351    1079.96809403    
1079.56608578    1253.18417314    1240.98807829    1239.69124604    1239.63000711    
1239.63000764    1239.69125    1240.9880695    1253.1841801    1079.5660712    
1079.55192869    1253.1253195    1240.92690703    1239.63001025    1239.56876851    
1239.56876852    1239.63000994    1240.92690083    1253.12532515    1079.55191803    
1079.55192874    1253.12531993    1240.92690464    1239.63000781    1239.56876576    
1239.56876835    1239.63000983    1240.92689992    1253.12532331    1079.55191336    
1079.56608663    1253.18417679    1240.98808062    1239.69125071    1239.6300097    
1239.63000996    1239.69125001    1240.98807477    1253.18418012    1079.56607462    
1079.96810477    1254.41468768    1242.28237275    1240.98807175    1240.9268973    
1240.92689948    1240.98807312    1242.28236623    1254.41467868    1079.9680698    
1088.83683076    1265.52675733    1254.41468577    1253.18417958    1253.12532556    
1253.12532375    1253.18418052    1254.41467844    1265.52677851    1088.83683454    
1207.9451443    1088.82678872    1079.96756597    1079.56606098    1079.55191982    
1079.55192208    1079.5660575    1079.96754863    1088.82680344    1207.94511646    

2     4     3     1     4     2     5     6     6     5     7     8     8     7     9     10     10     9     11     12     12     11     13     14     14     13     15     16     16     15     17     18     18     17     19     20     20     19     21     22     3     4     24     23     4     6     25     24     6     8     26     25     8     10     27     26     10     12     28     27     12     14     29     28     14     16     30     29     16     18     31     30     18     20     32     31     20     22     33     32     23     24     35     34     24     25     36     35     25     26     37     36     26     27     38     37     27     28     39     38     28     29     40     39     29     30     41     40     30     31     42     41     31     32     43     42     32     33     44     43     34     35     46     45     35     36     47     46     36     37     48     47     37     38     49     48     38     39     50     49     39     40     51     50     40     41     52     51     41     42     53     52     42     43     54     53     43     44     55     54     45     46     57     56     46     47     58     57     47     48     59     58     48     49     60     59     49     50     61     60     50     51     62     61     51     52     63     62     52     53     64     63     53     54     65     64     54     55     66     65     56     57     68     67     57     58     69     68     58     59     70     69     59     60     71     70     60     61     72     71     61     62     73     72     62     63     74     73     63     64     75     74     64     65     76     75     65     66     77     76     67     68     79     78     68     69     80     79     69     70     81     80     70     71     82     81     71     72     83     82     72     73     84     83     73     74     85     84     74     75     86     85     75     76     87     86     76     77     88     87     78     79     90     89     79     80     91     90     80     81     92     91     81     82     93     92     82     83     94     93     83     84     95     94     84     85     96     95     85     86     97     96     86     87     98     97     87     88     99     98     89     90     101     100     90     91     102     101     91     92     103     102     92     93     104     103     93     94     105     104     94     95     106     105     95     96     107     106     96     97     108     107     97     98     109     108     98     99     110     109     100     101     111     112     101     102     113     111     102     103     114     113     103     104     115     114     104     105     116     115     105     106     117     116     106     107     118     117     107     108     119     118     108     109     120     119     109     110     121     120     

