Title = " tecplot out file" 
variables = "x", "y", "z", "velX", "velY", "velZ","density","pressure","viscosity","temperature", "collisionFrequency",
Zone T = "nmesh0" N = 121 E = 100 DATAPACKING = BLOCK, VARLOCATION = ([4-11]=CELLCENTERED),  ZONETYPE=FEQUADRILATERAL 
0.0    
0.0    
0.1    
0.1    
0.0    

0.1    
0.0    
0.1    
0.0    
0.1    

0.0    
0.1    
0.0    
0.1    
0.0    

0.1    
0.0    
0.1    
0.0    
0.1    

0.0    
0.1    
0.2    
0.2    
0.2    

0.2    
0.2    
0.2    
0.2    
0.2    

0.2    
0.2    
0.2    
0.3    
0.3    

0.3    
0.3    
0.3    
0.3    
0.3    

0.3    
0.3    
0.3    
0.3    
0.4    

0.4    
0.4    
0.4    
0.4    
0.4    

0.4    
0.4    
0.4    
0.4    
0.4    

0.5    
0.5    
0.5    
0.5    
0.5    

0.5    
0.5    
0.5    
0.5    
0.5    

0.5    
0.6    
0.6    
0.6    
0.6    

0.6    
0.6    
0.6    
0.6    
0.6    

0.6    
0.6    
0.7    
0.7    
0.7    

0.7    
0.7    
0.7    
0.7    
0.7    

0.7    
0.7    
0.7    
0.8    
0.8    

0.8    
0.8    
0.8    
0.8    
0.8    

0.8    
0.8    
0.8    
0.8    
0.9    

0.9    
0.9    
0.9    
0.9    
0.9    

0.9    
0.9    
0.9    
0.9    
0.9    

1.0    
1.0    
1.0    
1.0    
1.0    

1.0    
1.0    
1.0    
1.0    
1.0    

1.0    
1.0    
0.9    
1.0    
0.9    
0.8    

0.8    
0.7    
0.7    
0.6    
0.6    

0.5    
0.5    
0.4    
0.4    
0.3    

0.3    
0.2    
0.2    
0.1    
0.1    

0.0    
0.0    
1.0    
0.9    
0.8    

0.7    
0.6    
0.5    
0.4    
0.3    

0.2    
0.1    
0.0    
1.0    
0.9    

0.8    
0.7    
0.6    
0.5    
0.4    

0.3    
0.2    
0.1    
0.0    
1.0    

0.9    
0.8    
0.7    
0.6    
0.5    

0.4    
0.3    
0.2    
0.1    
0.0    

1.0    
0.9    
0.8    
0.7    
0.6    

0.5    
0.4    
0.3    
0.2    
0.1    

0.0    
1.0    
0.9    
0.8    
0.7    

0.6    
0.5    
0.4    
0.3    
0.2    

0.1    
0.0    
1.0    
0.9    
0.8    

0.7    
0.6    
0.5    
0.4    
0.3    

0.2    
0.1    
0.0    
1.0    
0.9    

0.8    
0.7    
0.6    
0.5    
0.4    

0.3    
0.2    
0.1    
0.0    
1.0    

0.9    
0.8    
0.7    
0.6    
0.5    

0.4    
0.3    
0.2    
0.1    
0.0    

0.9    
1.0    
0.8    
0.7    
0.6    

0.5    
0.4    
0.3    
0.2    
0.1    

0.0    
0.0    0.0    0.0    0.0    0.0    
0.0    0.0    0.0    0.0    0.0    
0.0    0.0    0.0    0.0    0.0    
0.0    0.0    0.0    0.0    0.0    
0.0    0.0    0.0    0.0    0.0    
0.0    0.0    0.0    0.0    0.0    
0.0    0.0    0.0    0.0    0.0    
0.0    0.0    0.0    0.0    0.0    
0.0    0.0    0.0    0.0    0.0    
0.0    0.0    0.0    0.0    0.0    
0.0    0.0    0.0    0.0    0.0    
0.0    0.0    0.0    0.0    0.0    
0.0    0.0    0.0    0.0    0.0    
0.0    0.0    0.0    0.0    0.0    
0.0    0.0    0.0    0.0    0.0    
0.0    0.0    0.0    0.0    0.0    
0.0    0.0    0.0    0.0    0.0    
0.0    0.0    0.0    0.0    0.0    
0.0    0.0    0.0    0.0    0.0    
0.0    0.0    0.0    0.0    0.0    
0.0    0.0    0.0    0.0    0.0    
0.0    0.0    0.0    0.0    0.0    
0.0    0.0    0.0    0.0    0.0    
0.0    0.0    0.0    0.0    0.0    
0.0    
0.0113937709409    0.0463427704598    0.0467883607451    0.0467929094566    0.0467929506792    
0.0467929506706    0.046792909446    0.0467883604557    0.0463427709705    0.0113937692834    
0.000862216717703    0.00366545745735    0.00370034895552    0.0037007422522    0.00370074593702    
0.00370074507784    0.00370074140722    0.0037003499905    0.00366545138159    0.000862212584334    
1.64527327861e-05    6.25353316102e-05    6.30793006616e-05    6.30853649116e-05    6.30854177261e-05    
6.30854076996e-05    6.30852815321e-05    6.3074139292e-05    6.25471300289e-05    1.64503722457e-05    
2.12935153214e-07    7.03052594019e-07    7.13020987967e-07    7.1120454037e-07    7.13006759125e-07    
7.10339148071e-07    7.12064834871e-07    7.0562132771e-07    7.09905193905e-07    2.11262046525e-07    
3.872046626e-09    5.04695159512e-09    6.59236513268e-09    6.45445036428e-09    6.49584157815e-09    
6.43875329258e-09    6.42461703551e-09    2.40834445135e-09    9.41533021086e-09    1.83511894379e-09    
-4.84121925934e-10    -7.82268282099e-09    -5.55003848845e-09    -5.63124938888e-09    -5.63451599802e-09    
-6.4974269296e-09    -6.56820027023e-09    -9.99349023167e-09    -2.94232088683e-09    -2.17017960795e-09    
-2.09559928816e-07    -7.07759782906e-07    -7.11939592588e-07    -7.1210211704e-07    -7.12105448302e-07    
-7.12112919157e-07    -7.12170125408e-07    -7.16050753054e-07    -7.03213028927e-07    -2.11519941349e-07    
-1.64490224505e-05    -6.25454539125e-05    -6.30757825242e-05    -6.30820296558e-05    -6.30820927758e-05    
-6.30826660293e-05    -6.30826745889e-05    -6.30799391523e-05    -6.25304265131e-05    -1.64477186389e-05    
-0.000862209801727    -0.00366545077369    -0.00370034814973    -0.00370074324258    -0.00370074523226    
-0.00370074692774    -0.00370074159728    -0.00370035357245    -0.00366545663485    -0.000862215783519    
-0.0113937694069    -0.0463427721425    -0.0467883620179    -0.0467929103886    -0.0467929519943    
-0.0467929516132    -0.0467929108049    -0.0467883638386    -0.046342770632    -0.0113937709414    

-0.0112211715843    -0.000859921435963    -1.64118177664e-05    -2.12497577466e-07    -3.8938657852e-09    
4.41534225115e-10    2.09052460105e-07    1.64077442938e-05    0.000859914094074    0.0112211702452    
-0.0463421413171    -0.00366549081787    -6.25354657781e-05    -7.02970415378e-07    -3.14066314095e-09    
7.88739267986e-09    7.07765981504e-07    6.25449337216e-05    0.00366548353848    0.0463421439938    
-0.0467883535458    -0.00370034922108    -6.3082045271e-05    -7.13114849467e-07    -7.49441068263e-09    
5.50076561768e-09    7.11005526778e-07    6.30738488994e-05    0.00370035107263    0.0467883550083    
-0.046792909398    -0.00370074216799    -6.30853604115e-05    -7.11120332365e-07    -4.60659784323e-09    
5.69696157564e-09    7.12046034598e-07    6.3081319156e-05    0.00370074325737    0.0467929115221    
-0.0467929506773    -0.00370074501334    -6.30873146005e-05    -7.12253943092e-07    -6.55194242766e-09    
6.43185104917e-09    7.12024717445e-07    6.30813703762e-05    0.00370074562249    0.0467929522075    
-0.0467929506771    -0.00370074500423    -6.30853891267e-05    -7.10268221245e-07    -4.57709741292e-09    
6.5499237734e-09    7.12083879883e-07    6.30826579238e-05    0.00370074690418    0.0467929528128    
-0.0467929093871    -0.00370074136076    -6.30872051173e-05    -7.12186608886e-07    -6.49920393082e-09    
6.50374865566e-09    7.12082306863e-07    6.30813907069e-05    0.00370074199315    0.0467929109521    
-0.0467883534769    -0.00370035202009    -6.30763827347e-05    -7.07353009463e-07    -1.731124627e-09    
1.00104055541e-08    7.1549077508e-07    6.30799252271e-05    0.00370035364073    0.0467883578096    
-0.0463421415468    -0.00366548653416    -6.25416310966e-05    -7.09816842983e-07    -9.25192760486e-09    
2.92516642943e-09    7.03374548258e-07    6.25300491251e-05    0.00366549034309    0.0463421414044    
-0.0112211699146    -0.00085991592566    -1.64097701787e-05    -2.10091141983e-07    -1.70451052534e-09    
2.86669623013e-09    2.1117621731e-07    1.64079400404e-05    0.000859919875072    0.0112211715848    

1.93217996527e-17    3.0030590388e-17    4.00096273593e-17    3.87430271604e-18    2.1223277588e-17    
3.06554771736e-17    3.71270745867e-17    3.21849481325e-17    3.40433602735e-17    2.40342119058e-17    
1.24730817433e-17    2.05615806342e-17    4.11404259162e-17    3.42852378035e-17    2.60027136254e-17    
2.82640896643e-17    2.9330539563e-17    4.33992081888e-17    4.81619079719e-17    4.79088017719e-17    
1.68360555413e-17    2.47925738081e-17    5.18035925183e-17    3.57329223724e-17    4.45684088236e-17    
5.24116609915e-17    2.78964232944e-17    1.51501624366e-17    1.15568879417e-17    1.73703916338e-17    
1.16161571208e-17    5.03434097369e-17    4.22645881881e-17    3.38763993303e-17    2.20003768454e-17    
4.58904262522e-17    3.67928482626e-17    4.4251528315e-17    3.23086940915e-17    2.52215670577e-17    
2.43083384156e-18    2.74722398683e-17    1.47948734775e-17    4.95958417803e-17    4.33739487849e-17    
4.28765929261e-17    4.41112728253e-17    3.65725863821e-17    2.27817331204e-17    1.87887419604e-17    
2.89446812633e-17    5.19639815348e-17    4.7586509526e-17    3.1827747681e-17    3.73416866764e-17    
2.05887151761e-17    2.63188795043e-17    2.26718200782e-17    4.55025737142e-17    1.63324958123e-17    
2.30820079134e-17    2.82548127568e-17    4.68546755146e-17    3.67171719738e-17    3.49257198963e-17    
4.1087376413e-17    3.63455872456e-17    1.82570453141e-17    4.84793127888e-17    3.80838393006e-17    
2.48444481256e-17    4.56101291597e-17    3.60917233052e-17    2.38324946229e-17    3.54402989427e-17    
4.2383408053e-17    3.10637493213e-17    2.43711038311e-17    6.34852974523e-18    4.19519688804e-17    
1.15822830401e-17    3.32342104319e-17    4.374765074e-17    4.5731944453e-17    5.14951869856e-17    
1.91087313503e-17    3.19073682372e-17    3.50627427161e-17    4.03603453856e-17    2.10208345587e-17    
3.14473246807e-17    3.49737771721e-17    1.53107523343e-17    2.8687621942e-17    1.76087416996e-17    
3.75795169272e-17    1.61060422749e-17    1.74976696366e-17    -1.7177930891e-18    2.25049411198e-17    

0.891817979852    0.854637760338    0.853079124673    0.853055564797    0.853055308117    
0.853055308145    0.853055564838    0.853079126183    0.854637759211    0.891817990995    
0.854643914842    1.00271313359    1.00139968145    1.00136486987    1.00136446373    
1.00136446422    1.00136487044    1.00139968369    1.00271312908    0.85464390854    
0.853079193857    1.00139968151    1.00007202209    1.00003694342    1.0000365344    
1.00003653442    1.00003694337    1.00007202102    1.00139968547    0.853079189859    
0.853055565374    1.00136486987    1.00003694335    1.00000186085    1.00000145225    
1.0000014523    1.00000186175    1.00003694175    1.00136487088    0.853055560359    
0.853055308086    1.00136446418    1.00003653487    1.00000145279    1.00000104376    
1.00000104376    1.00000145277    1.00003653424    1.00136446524    0.853055304707    
0.853055308086    1.00136446421    1.00003653437    1.00000145228    1.00000104324    
1.00000104373    1.00000145274    1.00003653373    1.00136446468    0.853055303045    
0.8530555654    1.00136487041    1.00003694384    1.00000186181    1.00000145276    
1.00000145277    1.00000186177    1.00003694324    1.00136487133    0.853055561911    
0.853079193236    1.00139968442    1.00007202112    1.00003694242    1.0000365334    
1.00003653371    1.00003694269    1.00007202028    1.00139968129    0.853079183382    
0.854643915188    1.00271312977    1.0013996832    1.00136487084    1.00136446542    
1.0013644647    1.00136487151    1.00139968139    1.00271313486    0.854643914064    
0.891817991949    0.854637756262    0.853079122178    0.853055563036    0.8530553053    
0.853055306346    0.85305556188    0.853079118379    0.854637758692    0.891817979852    

1.73822128734    1.54381584265    1.53908553013    1.53901749818    1.53901673849    
1.53901673857    1.53901749829    1.53908553438    1.54381583485    1.73822131447    
1.54382987226    1.02128356959    1.01083665859    1.01069724459    1.01069577209    
1.01069577801    1.01069725086    1.01083667622    1.02128353451    1.54382984871    
1.53908570089    1.01083665871    1.00030548615    1.00016510849    1.00016362635    
1.00016362641    1.00016510825    1.0003054702    1.01083668878    1.53908568917    
1.53901749971    1.0106972446    1.0001651082    1.00002471383    1.00002323728    
1.00002323748    1.00002472523    1.00016508928    1.01069725874    1.53901748453    
1.53901673842    1.01069577787    1.00016363218    1.0000232434    1.00002176125    
1.00002176121    1.00002324329    1.00016361839    1.01069578898    1.53901672771    
1.53901673843    1.01069577799    1.00016362623    1.00002323745    1.0000217552    
1.00002176109    1.00002324317    1.00016361562    1.01069578599    1.53901672315    
1.5390174998    1.01069725077    1.00016511406    1.00002472549    1.00002324324    
1.00002324328    1.00002472525    1.0001651004    1.01069726119    1.53901748873    
1.53908569989    1.01083668064    1.00030547149    1.00016509358    1.00016361144    
1.00016361551    1.00016509745    1.00030545886    1.01083665595    1.53908566663    
1.54382986874    1.02128353881    1.01083667649    1.01069725857    1.01069578995    
1.01069578605    1.01069726217    1.01083665762    1.02128358969    1.5438298692    
1.73822131671    1.54381582506    1.53908552169    1.53901749193    1.53901672934    
1.53901673222    1.53901748869    1.53908550655    1.54381583722    1.73822128734    

3.86364524145e-07    3.63291092117e-07    3.62925403942e-07    3.62920528203e-07    3.62920471549e-07    
3.62920471554e-07    3.62920528211e-07    3.62925404235e-07    3.63291091018e-07    3.8636452512e-07    
3.63291647193e-07    2.28397471566e-07    2.26743812732e-07    2.26724865911e-07    2.26724672838e-07    
2.26724673822e-07    2.26724866944e-07    2.26743815525e-07    2.28397466045e-07    3.63291644872e-07    
3.62925412718e-07    2.26743812743e-07    2.25070198641e-07    2.25051008404e-07    2.25050812825e-07    
2.25050812832e-07    2.25051008369e-07    2.25070195929e-07    2.2674381748e-07    3.62925411857e-07    
3.62920528297e-07    2.26724865913e-07    2.25051008364e-07    2.25031814047e-07    2.25031619392e-07    
2.2503161942e-07    2.2503181596e-07    2.25051005208e-07    2.26724868296e-07    3.62920527124e-07    
3.62920471546e-07    2.26724673804e-07    2.25050813802e-07    2.2503162041e-07    2.25031424812e-07    
2.25031424805e-07    2.25031620392e-07    2.25050811402e-07    2.26724675629e-07    3.62920470664e-07    
3.62920471546e-07    2.26724673821e-07    2.25050812809e-07    2.25031619416e-07    2.25031423804e-07    
2.25031424789e-07    2.25031620376e-07    2.25050810991e-07    2.26724675188e-07    3.62920470365e-07    
3.62920528305e-07    2.26724866934e-07    2.25051009341e-07    2.25031815998e-07    2.25031620384e-07    
2.25031620391e-07    2.25031815962e-07    2.25051006961e-07    2.26724868659e-07    3.62920527392e-07    
3.6292541274e-07    2.26743816194e-07    2.25070196146e-07    2.25051005868e-07    2.25050810289e-07    
2.25050810975e-07    2.25051006524e-07    2.25070193998e-07    2.26743812281e-07    3.62925409784e-07    
3.63291646401e-07    2.28397466697e-07    2.26743815663e-07    2.26724868272e-07    2.26724675772e-07    
2.26724675196e-07    2.26724868804e-07    2.26743812567e-07    2.28397474974e-07    3.63291646877e-07    
3.86364525188e-07    3.63291090169e-07    3.62925403191e-07    3.62920527616e-07    3.6292047077e-07    
3.6292047096e-07    3.62920527395e-07    3.62925401607e-07    3.63291091648e-07    3.86364524145e-07    

1.94907629876    1.80639788492    1.80415331429    1.80412339089    1.80412304319    
1.80412304323    1.80412339094    1.80415331608    1.80639787818    1.94907630483    
1.80640129234    1.01852018825    1.00942378684    1.00931965461    1.00931859348    
1.0093185989    1.00931966029    1.00942380219    1.01852015786    1.8064012781    
1.80415336814    1.0094237869    1.00023344724    1.00012816033    1.00012708731    
1.00012708735    1.00012816015    1.00023343236    1.00942381294    1.80415336286    
1.80412339147    1.00931965462    1.00012816012    1.00002285293    1.000021785    
1.00002178515    1.00002286343    1.0001281428    1.00931966772    1.80412338427    
1.80412304318    1.00931859879    1.00012709267    1.00002179058    1.00002071747    
1.00002071743    1.00002179048    1.0001270795    1.00931860883    1.80412303777    
1.80412304318    1.00931859889    1.00012708722    1.00002178513    1.00002071194    
1.00002071734    1.0000217904    1.00012707724    1.0093186064    1.80412303593    
1.80412339152    1.00931966023    1.00012816548    1.00002286364    1.00002179044    
1.00002179048    1.00002286344    1.00012815242    1.00931966971    1.80412338592    
1.80415336828    1.00942380587    1.00023343355    1.00012814642    1.0001270734    
1.00012707716    1.00012815002    1.00023342177    1.00942378436    1.80415335014    
1.80640128748    1.01852016144    1.00942380295    1.00931966759    1.00931860961    
1.00931860645    1.00931967051    1.00942378593    1.01852020701    1.80640129041    
1.94907630526    1.80639787296    1.80415330968    1.80412338729    1.80412303842    
1.80412303958    1.80412338593    1.80415329995    1.80639788204    1.94907629876    

1254.87979968    1185.31846826    1182.87728801    1182.84089241    1182.84049319    
1182.84049323    1182.84089247    1182.87729032    1185.31846585    1254.87981611    
1185.32742891    1247.23807447    1243.48297993    1243.41537987    1243.41462718    
1243.41462906    1243.41538191    1243.4829863    1247.23806177    1185.3274184    
1182.87739065    1243.48298002    1239.6781978    1239.60992111    1239.60916141    
1239.60916144    1239.60992101    1239.67819297    1243.48299102    1182.87738444    
1182.84089328    1243.41537988    1239.60992097    1239.54163439    1239.5408764    
1239.5408765    1239.54163798    1239.6099149    1243.41538419    1182.84088543    
1182.84049314    1243.41462899    1239.60916326    1239.54087839    1239.54011866    
1239.54011864    1239.54087834    1239.60915938    1243.41463265    1182.84048778    
1182.84049314    1243.41462904    1239.60916135    1239.54087648    1239.5401167    
1239.54011858    1239.54087829    1239.60915821    1243.41463138    1182.84048525    
1182.84089332    1243.41538186    1239.60992284    1239.5416381    1239.54087832    
1239.54087834    1239.541638    1239.60991902    1243.41538522    1182.84088779    
1182.8773898    1243.48298807    1239.67819337    1239.60991659    1239.60915689    
1239.60915816    1239.60991777    1239.67818956    1243.48297915    1182.87737388    
1185.32742879    1247.23806347    1243.48298587    1243.41538412    1243.41463306    
1243.41463142    1243.41538563    1243.48297964    1247.2380804    1185.32742759    
1254.8798175    1185.31846111    1182.87728397    1182.84088952    1182.84048868    
1182.84049028    1182.84088775    1182.87727749    1185.31846562    1254.87979968    

2     4     3     1     4     2     5     6     6     5     7     8     8     7     9     10     10     9     11     12     12     11     13     14     14     13     15     16     16     15     17     18     18     17     19     20     20     19     21     22     3     4     24     23     4     6     25     24     6     8     26     25     8     10     27     26     10     12     28     27     12     14     29     28     14     16     30     29     16     18     31     30     18     20     32     31     20     22     33     32     23     24     35     34     24     25     36     35     25     26     37     36     26     27     38     37     27     28     39     38     28     29     40     39     29     30     41     40     30     31     42     41     31     32     43     42     32     33     44     43     34     35     46     45     35     36     47     46     36     37     48     47     37     38     49     48     38     39     50     49     39     40     51     50     40     41     52     51     41     42     53     52     42     43     54     53     43     44     55     54     45     46     57     56     46     47     58     57     47     48     59     58     48     49     60     59     49     50     61     60     50     51     62     61     51     52     63     62     52     53     64     63     53     54     65     64     54     55     66     65     56     57     68     67     57     58     69     68     58     59     70     69     59     60     71     70     60     61     72     71     61     62     73     72     62     63     74     73     63     64     75     74     64     65     76     75     65     66     77     76     67     68     79     78     68     69     80     79     69     70     81     80     70     71     82     81     71     72     83     82     72     73     84     83     73     74     85     84     74     75     86     85     75     76     87     86     76     77     88     87     78     79     90     89     79     80     91     90     80     81     92     91     81     82     93     92     82     83     94     93     83     84     95     94     84     85     96     95     85     86     97     96     86     87     98     97     87     88     99     98     89     90     101     100     90     91     102     101     91     92     103     102     92     93     104     103     93     94     105     104     94     95     106     105     95     96     107     106     96     97     108     107     97     98     109     108     98     99     110     109     100     101     111     112     101     102     113     111     102     103     114     113     103     104     115     114     104     105     116     115     105     106     117     116     106     107     118     117     107     108     119     118     108     109     120     119     109     110     121     120     

