Title = " tecplot out file" 
variables = "x", "y", "z", "velX", "velY", "velZ","density","pressure","viscosity","temperature", "collisionFrequency",
Zone T = "nmesh0" N = 121 E = 100 DATAPACKING = BLOCK, VARLOCATION = ([4-11]=CELLCENTERED),  ZONETYPE=FEQUADRILATERAL 
0.0    
0.0    
0.1    
0.1    
0.0    

0.1    
0.0    
0.1    
0.0    
0.1    

0.0    
0.1    
0.0    
0.1    
0.0    

0.1    
0.0    
0.1    
0.0    
0.1    

0.0    
0.1    
0.2    
0.2    
0.2    

0.2    
0.2    
0.2    
0.2    
0.2    

0.2    
0.2    
0.2    
0.3    
0.3    

0.3    
0.3    
0.3    
0.3    
0.3    

0.3    
0.3    
0.3    
0.3    
0.4    

0.4    
0.4    
0.4    
0.4    
0.4    

0.4    
0.4    
0.4    
0.4    
0.4    

0.5    
0.5    
0.5    
0.5    
0.5    

0.5    
0.5    
0.5    
0.5    
0.5    

0.5    
0.6    
0.6    
0.6    
0.6    

0.6    
0.6    
0.6    
0.6    
0.6    

0.6    
0.6    
0.7    
0.7    
0.7    

0.7    
0.7    
0.7    
0.7    
0.7    

0.7    
0.7    
0.7    
0.8    
0.8    

0.8    
0.8    
0.8    
0.8    
0.8    

0.8    
0.8    
0.8    
0.8    
0.9    

0.9    
0.9    
0.9    
0.9    
0.9    

0.9    
0.9    
0.9    
0.9    
0.9    

1.0    
1.0    
1.0    
1.0    
1.0    

1.0    
1.0    
1.0    
1.0    
1.0    

1.0    
1.0    
0.9    
1.0    
0.9    
0.8    

0.8    
0.7    
0.7    
0.6    
0.6    

0.5    
0.5    
0.4    
0.4    
0.3    

0.3    
0.2    
0.2    
0.1    
0.1    

0.0    
0.0    
1.0    
0.9    
0.8    

0.7    
0.6    
0.5    
0.4    
0.3    

0.2    
0.1    
0.0    
1.0    
0.9    

0.8    
0.7    
0.6    
0.5    
0.4    

0.3    
0.2    
0.1    
0.0    
1.0    

0.9    
0.8    
0.7    
0.6    
0.5    

0.4    
0.3    
0.2    
0.1    
0.0    

1.0    
0.9    
0.8    
0.7    
0.6    

0.5    
0.4    
0.3    
0.2    
0.1    

0.0    
1.0    
0.9    
0.8    
0.7    

0.6    
0.5    
0.4    
0.3    
0.2    

0.1    
0.0    
1.0    
0.9    
0.8    

0.7    
0.6    
0.5    
0.4    
0.3    

0.2    
0.1    
0.0    
1.0    
0.9    

0.8    
0.7    
0.6    
0.5    
0.4    

0.3    
0.2    
0.1    
0.0    
1.0    

0.9    
0.8    
0.7    
0.6    
0.5    

0.4    
0.3    
0.2    
0.1    
0.0    

0.9    
1.0    
0.8    
0.7    
0.6    

0.5    
0.4    
0.3    
0.2    
0.1    

0.0    
0.0    0.0    0.0    0.0    0.0    
0.0    0.0    0.0    0.0    0.0    
0.0    0.0    0.0    0.0    0.0    
0.0    0.0    0.0    0.0    0.0    
0.0    0.0    0.0    0.0    0.0    
0.0    0.0    0.0    0.0    0.0    
0.0    0.0    0.0    0.0    0.0    
0.0    0.0    0.0    0.0    0.0    
0.0    0.0    0.0    0.0    0.0    
0.0    0.0    0.0    0.0    0.0    
0.0    0.0    0.0    0.0    0.0    
0.0    0.0    0.0    0.0    0.0    
0.0    0.0    0.0    0.0    0.0    
0.0    0.0    0.0    0.0    0.0    
0.0    0.0    0.0    0.0    0.0    
0.0    0.0    0.0    0.0    0.0    
0.0    0.0    0.0    0.0    0.0    
0.0    0.0    0.0    0.0    0.0    
0.0    0.0    0.0    0.0    0.0    
0.0    0.0    0.0    0.0    0.0    
0.0    0.0    0.0    0.0    0.0    
0.0    0.0    0.0    0.0    0.0    
0.0    0.0    0.0    0.0    0.0    
0.0    0.0    0.0    0.0    0.0    
0.0    
0.000199812033769    0.0046455141493    0.00489531261483    0.00490483804616    0.0049051435072    
0.00490514347926    0.00490483801048    0.00489531243525    0.00464551471471    0.000199811973661    
0.000657067946489    0.0116061415262    0.0120600389783    0.0120760383329    0.0120764713698    
0.0120764700804    0.0120760370279    0.012060039248    0.0116061345308    0.000657067060624    
4.44593856741e-05    0.000746377076582    0.000769697367033    0.000770440667436    0.000770458880281    
0.000770458835074    0.000770440290657    0.000769689735364    0.000746393618947    4.44595778486e-05    
1.80711048484e-06    2.69187342009e-05    2.75799326485e-05    2.75969363049e-05    2.75999648881e-05    
2.75960731687e-05    2.75978938738e-05    2.75681010451e-05    2.69301016498e-05    1.80696902239e-06    
5.56016378725e-08    7.06687000988e-07    7.2258691708e-07    7.22530911308e-07    7.22765005523e-07    
7.22440349302e-07    7.22434400993e-07    7.1549750349e-07    7.14079553285e-07    5.53518020834e-08    
-5.51224822313e-08    -7.1142944904e-07    -7.20828263438e-07    -7.21379338965e-07    -7.21407931785e-07    
-7.22717158409e-07    -7.2296146535e-07    -7.28061520319e-07    -7.03497018145e-07    -5.53217620089e-08    
-1.80668089601e-06    -2.69267353059e-05    -2.75779312347e-05    -2.75978545728e-05    -2.75983307729e-05    
-2.75983694575e-05    -2.75981349838e-05    -2.75845558377e-05    -2.69183300257e-05    -1.80680933257e-06    
-4.44593576661e-05    -0.000746390085996    -0.000769691890558    -0.000770435365541    -0.000770453657582    
-0.000770454646896    -0.000770436634229    -0.000769698600611    -0.000746369472937    -4.4458548799e-05    
-0.000657066576359    -0.0116061333096    -0.0120600375999    -0.0120760399473    -0.01207647052    
-0.0120764729624    -0.0120760376124    -0.0120600463668    -0.0116061398989    -0.000657068115851    
-0.000199811961777    -0.00464551499565    -0.0048953128134    -0.00490483821299    -0.00490514373869    
-0.00490514367731    -0.00490483830956    -0.00489531354985    -0.00464551417915    -0.000199812036994    

-0.000199255039011    -0.000656938876247    -4.44097698629e-05    -1.80464579747e-06    -5.55325170714e-08    
5.50088422953e-08    1.8041559894e-06    4.44093518963e-05    0.000656937492055    0.000199254980348    
-0.00464539384159    -0.011606379144    -0.000746382618628    -2.69186423216e-05    -7.03797064772e-07    
7.11715050058e-07    2.69267105365e-05    0.000746394548449    0.0116063701248    0.0046453948962    
-0.00489530440223    -0.0120600476469    -0.000769701712312    -2.75803699606e-05    -7.23928593757e-07    
7.20652704621e-07    2.75763768687e-05    0.000769689594541    0.0120600498583    0.00489530460198    
-0.00490483770317    -0.012076038326    -0.000770440731454    -2.75967563274e-05    -7.19774689022e-07    
7.21675562257e-07    2.75976056074e-05    0.000770434277208    0.0120760400966    0.00490483813293    
-0.00490514347015    -0.0120764698958    -0.000770461698292    -2.75990823073e-05    -7.22792400865e-07    
7.22549378719e-07    2.75981497019e-05    0.000770452681423    0.0120764708851    0.00490514379176    
-0.00490514346903    -0.0120764698929    -0.00077045884749    -2.75959308729e-05    -7.19642378248e-07    
7.22976335838e-07    2.75982897749e-05    0.000770454556147    0.0120764727395    0.00490514393171    
-0.00490483766936    -0.0120760371306    -0.000770443288265    -2.75983811664e-05    -7.22587096224e-07    
7.22798391704e-07    2.75979078968e-05    0.000770434712142    0.0120760382306    0.00490483802959    
-0.00489530427165    -0.0120600504623    -0.000769693239575    -2.7570807519e-05    -7.14309428861e-07    
7.28140831645e-07    2.75837206313e-05    0.000769698689289    0.0120600544547    0.00489530555476    
-0.00464539431308    -0.011606374863    -0.000746391455644    -2.69296929559e-05    -7.13880594142e-07    
7.03406003638e-07    2.69185643797e-05    0.000746374009294    0.0116063781607    0.00464539385812    
-0.000199254967562    -0.000656937863344    -4.44096319873e-05    -1.80434843245e-06    -5.52412471903e-08    
5.53553319541e-08    1.8043354227e-06    4.4408759104e-05    0.000656939008912    0.000199255042435    

3.42818694891e-17    3.58637290218e-17    1.13482437595e-17    2.5778405688e-17    2.18688494938e-17    
3.38380022823e-17    3.46514624374e-17    2.25419129682e-17    2.86274422704e-17    3.63919902456e-17    
1.78681597714e-17    3.35847965744e-17    3.50201400032e-17    5.1589685641e-17    4.0031328261e-17    
5.91642644517e-17    3.0300788066e-17    3.44124761417e-17    3.57606250496e-17    3.43412375039e-17    
2.69417958309e-17    3.231703565e-17    5.10103431575e-17    3.7053455418e-17    2.60120160044e-17    
4.10369851618e-17    3.90622383837e-17    2.95912046456e-17    3.64753286428e-17    4.72799456128e-17    
2.97383510659e-17    1.28071876328e-17    4.79499673929e-17    4.92802509775e-17    4.04164425005e-17    
3.93842965498e-17    2.8189200021e-17    3.08818785302e-17    1.94239401814e-17    3.10039297421e-17    
2.46030507254e-17    4.34532826012e-17    3.10824440431e-17    2.64689561637e-17    5.06246041586e-17    
2.835487371e-17    5.40889433896e-17    3.17697355064e-17    3.79762240727e-17    1.72734855005e-17    
4.79123054804e-19    3.49841753789e-17    4.88285068886e-17    4.00566339251e-17    3.84969508163e-17    
3.95120634055e-17    4.52887341433e-17    4.44249678541e-17    2.6080580213e-17    4.310908694e-17    
1.02533082753e-17    3.21044543406e-17    3.00328482849e-17    3.64638293082e-17    4.87865455762e-17    
4.77778707449e-17    1.74798287687e-17    3.07907554227e-17    4.28230421863e-17    2.84338708954e-17    
1.00704738094e-17    4.07266098493e-17    4.01983623121e-17    3.87480497637e-17    3.47528758507e-17    
2.97525306723e-17    4.93500937925e-17    3.15798720916e-17    2.89742888507e-17    4.39294497942e-17    
2.20809175621e-17    2.74059163361e-17    2.60999522664e-17    3.50855342266e-17    4.24130475091e-17    
3.78200089571e-17    4.06823916097e-17    4.28220844547e-17    3.86797339701e-17    2.43728240118e-17    
2.56732888842e-17    1.74842996981e-17    2.39015742648e-17    3.27397506442e-17    3.52689615748e-17    
3.64748844185e-17    1.09276620587e-17    3.82243708283e-17    2.21133769996e-17    1.60010092305e-17    

0.858324127269    0.777005950319    0.771944581669    0.77175197452    0.771746250365    
0.771746250665    0.771751974993    0.771944585233    0.777005945887    0.858324146009    
0.777013300544    1.0050445583    1.00311333603    1.00266013181    1.00264103232    
1.00264103293    1.00266013285    1.00311333744    1.00504455336    0.777013284629    
0.771944890685    1.00311333648    1.00098809745    1.00051777173    1.00049809241    
1.00049809255    1.00051777141    1.00098809668    1.00311334092    0.771944884246    
0.771751983751    1.00266013184    1.00051777154    1.00004681257    1.00002711828    
1.00002711849    1.00004681317    1.00051776946    1.00266013349    0.771751973244    
0.771746250728    1.00264103279    1.000498093    1.00002711907    1.00000742432    
1.00000742431    1.00002711893    1.00049809209    1.00264103442    0.771746243194    
0.771746250747    1.00264103298    1.00049809252    1.00002711857    1.00000742367    
1.00000742423    1.00002711888    1.0004980917    1.0026410336    0.771746239865    
0.771751984147    1.00266013288    1.00051777198    1.00004681348    1.00002711885    
1.00002711895    1.00004681317    1.00051777123    1.0026601335    0.771751975897    
0.77194489181    1.00311333877    1.00098809668    1.00051777034    1.00049809099    
1.00049809152    1.00051777051    1.00098809529    1.00311333602    0.771944868448    
0.777013298284    1.00504455445    1.00311333768    1.00266013325    1.0026410346    
1.00264103379    1.00266013367    1.00311333588    1.00504456035    0.77701329934    
0.858324148041    0.777005939615    0.771944576815    0.771751970493    0.771746244504    
0.771746246251    0.77175196808    0.771944566038    0.777005948421    0.858324127109    

1.71594345419    1.54003621451    1.52917004085    1.52875002484    1.52873723228    
1.52873723294    1.52875002586    1.52917004845    1.5400362037    1.71594349194    
1.54005117192    1.07388630814    1.03918738031    1.03767055992    1.03762158925    
1.03762159814    1.03767057038    1.03918740123    1.07388626116    1.54005113676    
1.52917069037    1.03918738359    1.00328345948    1.00173021376    1.00168047807    
1.00168047852    1.00173021296    1.00328343742    1.03918742493    1.52917067701    
1.52875004498    1.0376705602    1.00173021326    1.00017619252    1.00012645799    
1.00012645885    1.00017620818    1.00173018488    1.03767058241    1.52875002279    
1.52873723311    1.03762159784    1.00168048704    1.0001264675    1.00007672578    
1.00007672583    1.00012646713    1.00168046567    1.03762161517    1.52873721712    
1.52873723315    1.03762159836    1.00168047856    1.00012645897    1.00007671687    
1.00007672559    1.00012646691    1.00168046226    1.03762161052    1.52873721014    
1.52875004584    1.03767057062    1.00173022162    1.0001762092    1.00012646667    
1.0001264671    1.00017620822    1.00173020077    1.03767058455    1.52875002829    
1.5291706931    1.03918741066    1.00328343885    1.00173019087    1.00168045514    
1.00168046162    1.00173019638    1.00328341819    1.03918737904    1.52917064263    
1.54005116572    1.07388626752    1.03918740487    1.03767058174    1.03762161648    
1.0376216111    1.03767058591    1.03918737921    1.07388634022    1.54005116926    
1.71594349605    1.54003619029    1.52917003051    1.52875001625    1.52873721985    
1.52873722351    1.52875001113    1.52917000671    1.54003621043    1.71594345386    

3.94389841451e-07    3.91644668753e-07    3.9147163956e-07    3.91463659441e-07    3.91463357925e-07    
3.91463357938e-07    3.91463659459e-07    3.91471639671e-07    3.91644668335e-07    3.94389841504e-07    
3.91644748915e-07    2.37433504651e-07    2.31560462642e-07    2.31371327598e-07    2.31366052982e-07    
2.31366054474e-07    2.31371329292e-07    2.31560466153e-07    2.37433497183e-07    3.91644748171e-07    
3.91471647311e-07    2.3156046315e-07    2.2544552577e-07    2.25248503528e-07    2.25243033398e-07    
2.25243033453e-07    2.2524850344e-07    2.25445521894e-07    2.31560469781e-07    3.91471647186e-07    
3.91463659826e-07    2.31371327644e-07    2.25248503471e-07    2.25051229595e-07    2.25045754822e-07    
2.25045754939e-07    2.25051232342e-07    2.25248498683e-07    2.31371331346e-07    3.91463659541e-07    
3.91463357947e-07    2.31366054445e-07    2.25243034924e-07    2.2504575641e-07    2.25040280164e-07    
2.25040280173e-07    2.2504575637e-07    2.25243031197e-07    2.31366057271e-07    3.91463357726e-07    
3.91463357948e-07    2.31366054503e-07    2.25243033467e-07    2.25045754946e-07    2.25040278657e-07    
2.25040280146e-07    2.25045756339e-07    2.25243030647e-07    2.31366056584e-07    3.91463357647e-07    
3.91463659843e-07    2.31371329332e-07    2.25248504913e-07    2.2505123247e-07    2.25045756299e-07    
2.25045756361e-07    2.25051232349e-07    2.25248501252e-07    2.31371331731e-07    3.91463659591e-07    
3.91471647415e-07    2.31560467606e-07    2.25445522156e-07    2.25248499613e-07    2.2524302948e-07    
2.25243030563e-07    2.25248500585e-07    2.25445518649e-07    2.31560462414e-07    3.91471646547e-07    
3.91644748562e-07    2.37433498113e-07    2.31560466768e-07    2.31371331269e-07    2.31366057475e-07    
2.31366056653e-07    2.31371331945e-07    2.3156046247e-07    2.37433510004e-07    3.91644748859e-07    
3.94389841513e-07    3.91644668133e-07    3.91471639409e-07    3.91463659315e-07    3.91463357754e-07    
3.91463357795e-07    3.91463659244e-07    3.91471638902e-07    3.91644668687e-07    3.94389841449e-07    

1.99917886458    1.98201341171    1.98093241039    1.98088255723    1.98088067362    
1.98088067369    1.98088255734    1.98093241108    1.9820134091    1.99917886491    
1.98201391255    1.06849621669    1.03596208223    1.03491754284    1.0348884155    
1.03488842374    1.0349175522    1.03596210163    1.0684961752    1.9820139079    
1.98093245881    1.03596208504    1.00229309623    1.00121181459    1.00118179702    
1.00118179733    1.0012118141    1.00229307496    1.03596212167    1.98093245803    
1.98088255963    1.0349175431    1.00121181428    1.00012937389    1.00009933702    
1.00009933766    1.00012938896    1.001211788    1.03491756354    1.98088255786    
1.98088067375    1.03488842358    1.00118180539    1.00009934573    1.00006930095    
1.000069301    1.00009934551    1.00118178494    1.03488843918    1.98088067237    
1.98088067376    1.0348884239    1.0011817974    1.0000993377    1.00006929268    
1.00006930085    1.00009934534    1.00118178192    1.03488843539    1.98088067187    
1.98088255974    1.03491755242    1.00121182219    1.00012938966    1.00009934512    
1.00009934546    1.000129389    1.0012118021    1.03491756567    1.98088255817    
1.98093245946    1.03596210965    1.00229307639    1.0012117931    1.00118177552    
1.00118178146    1.00121179843    1.00229305714    1.03596208098    1.98093245403    
1.98201391034    1.06849618036    1.03596210502    1.03491756312    1.03488844031    
1.03488843577    1.03491756685    1.03596208129    1.06849624642    1.9820139122    
1.99917886496    1.98201340784    1.98093240944    1.98088255644    1.98088067254    
1.9808806728    1.980882556    1.98093240628    1.9820134113    1.99917886456    

1213.5887985    1096.81409111    1089.55656782    1089.27950499    1089.27122891    
1089.27122934    1089.27950567    1089.55657292    1096.81408458    1213.58882504    
1096.82451928    1261.56783927    1251.76776159    1250.96242125    1250.93190245    
1250.9319051    1250.9624247    1251.76776781    1261.56782376    1096.82449633    
1089.55700904    1251.7677628    1241.29880873    1240.46114528    1240.42968033    
1240.42968058    1240.46114478    1241.29880278    1251.76777676    1089.55699987    
1089.27951827    1250.96242134    1240.46114498    1239.62244034    1239.59095443    
1239.59095485    1239.62244463    1240.46113621    1250.9624281    1089.27950326    
1089.27122944    1250.9319049    1240.42968304    1239.59095747    1239.55946924    
1239.55946924    1239.59095724    1240.4296771    1250.93191051    1089.27121866    
1089.27122946    1250.93190521    1240.42968056    1239.59095496    1239.55946648    
1239.5594691    1239.59095713    1240.4296759    1250.93190862    1089.27121391    
1089.27951884    1250.96242478    1240.46114739    1239.62244518    1239.59095706    
1239.59095725    1239.62244464    1240.46114173    1250.9624286    1089.27950703    
1089.55701069    1251.76777131    1241.29880311    1240.46113851    1240.42967351    
1240.42967558    1240.46113998    1241.29879685    1251.76776129    1089.55697715    
1096.82451586    1261.56782629    1251.76776888    1250.96242771    1250.931911    
1250.93190895    1250.96242908    1251.7677612    1261.56784852    1096.82451754    
1213.58882792    1096.81407559    1089.55656087    1089.27949923    1089.27122052    
1089.27122302    1089.27949578    1089.55654533    1096.81408839    1213.58879827    

2     4     3     1     4     2     5     6     6     5     7     8     8     7     9     10     10     9     11     12     12     11     13     14     14     13     15     16     16     15     17     18     18     17     19     20     20     19     21     22     3     4     24     23     4     6     25     24     6     8     26     25     8     10     27     26     10     12     28     27     12     14     29     28     14     16     30     29     16     18     31     30     18     20     32     31     20     22     33     32     23     24     35     34     24     25     36     35     25     26     37     36     26     27     38     37     27     28     39     38     28     29     40     39     29     30     41     40     30     31     42     41     31     32     43     42     32     33     44     43     34     35     46     45     35     36     47     46     36     37     48     47     37     38     49     48     38     39     50     49     39     40     51     50     40     41     52     51     41     42     53     52     42     43     54     53     43     44     55     54     45     46     57     56     46     47     58     57     47     48     59     58     48     49     60     59     49     50     61     60     50     51     62     61     51     52     63     62     52     53     64     63     53     54     65     64     54     55     66     65     56     57     68     67     57     58     69     68     58     59     70     69     59     60     71     70     60     61     72     71     61     62     73     72     62     63     74     73     63     64     75     74     64     65     76     75     65     66     77     76     67     68     79     78     68     69     80     79     69     70     81     80     70     71     82     81     71     72     83     82     72     73     84     83     73     74     85     84     74     75     86     85     75     76     87     86     76     77     88     87     78     79     90     89     79     80     91     90     80     81     92     91     81     82     93     92     82     83     94     93     83     84     95     94     84     85     96     95     85     86     97     96     86     87     98     97     87     88     99     98     89     90     101     100     90     91     102     101     91     92     103     102     92     93     104     103     93     94     105     104     94     95     106     105     95     96     107     106     96     97     108     107     97     98     109     108     98     99     110     109     100     101     111     112     101     102     113     111     102     103     114     113     103     104     115     114     104     105     116     115     105     106     117     116     106     107     118     117     107     108     119     118     108     109     120     119     109     110     121     120     

