Title = " tecplot out file" 
variables = "x", "y", "z", "velX", "velY", "velZ","density","pressure","viscosity","temperature", "collisionFrequency",
Zone T = "nmesh0" N = 121 E = 100 DATAPACKING = BLOCK, VARLOCATION = ([4-11]=CELLCENTERED),  ZONETYPE=FEQUADRILATERAL 
0.0    
0.0    
0.1    
0.1    
0.0    

0.1    
0.0    
0.1    
0.0    
0.1    

0.0    
0.1    
0.0    
0.1    
0.0    

0.1    
0.0    
0.1    
0.0    
0.1    

0.0    
0.1    
0.2    
0.2    
0.2    

0.2    
0.2    
0.2    
0.2    
0.2    

0.2    
0.2    
0.2    
0.3    
0.3    

0.3    
0.3    
0.3    
0.3    
0.3    

0.3    
0.3    
0.3    
0.3    
0.4    

0.4    
0.4    
0.4    
0.4    
0.4    

0.4    
0.4    
0.4    
0.4    
0.4    

0.5    
0.5    
0.5    
0.5    
0.5    

0.5    
0.5    
0.5    
0.5    
0.5    

0.5    
0.6    
0.6    
0.6    
0.6    

0.6    
0.6    
0.6    
0.6    
0.6    

0.6    
0.6    
0.7    
0.7    
0.7    

0.7    
0.7    
0.7    
0.7    
0.7    

0.7    
0.7    
0.7    
0.8    
0.8    

0.8    
0.8    
0.8    
0.8    
0.8    

0.8    
0.8    
0.8    
0.8    
0.9    

0.9    
0.9    
0.9    
0.9    
0.9    

0.9    
0.9    
0.9    
0.9    
0.9    

1.0    
1.0    
1.0    
1.0    
1.0    

1.0    
1.0    
1.0    
1.0    
1.0    

1.0    
1.0    
0.9    
1.0    
0.9    
0.8    

0.8    
0.7    
0.7    
0.6    
0.6    

0.5    
0.5    
0.4    
0.4    
0.3    

0.3    
0.2    
0.2    
0.1    
0.1    

0.0    
0.0    
1.0    
0.9    
0.8    

0.7    
0.6    
0.5    
0.4    
0.3    

0.2    
0.1    
0.0    
1.0    
0.9    

0.8    
0.7    
0.6    
0.5    
0.4    

0.3    
0.2    
0.1    
0.0    
1.0    

0.9    
0.8    
0.7    
0.6    
0.5    

0.4    
0.3    
0.2    
0.1    
0.0    

1.0    
0.9    
0.8    
0.7    
0.6    

0.5    
0.4    
0.3    
0.2    
0.1    

0.0    
1.0    
0.9    
0.8    
0.7    

0.6    
0.5    
0.4    
0.3    
0.2    

0.1    
0.0    
1.0    
0.9    
0.8    

0.7    
0.6    
0.5    
0.4    
0.3    

0.2    
0.1    
0.0    
1.0    
0.9    

0.8    
0.7    
0.6    
0.5    
0.4    

0.3    
0.2    
0.1    
0.0    
1.0    

0.9    
0.8    
0.7    
0.6    
0.5    

0.4    
0.3    
0.2    
0.1    
0.0    

0.9    
1.0    
0.8    
0.7    
0.6    

0.5    
0.4    
0.3    
0.2    
0.1    

0.0    
0.0    0.0    0.0    0.0    0.0    
0.0    0.0    0.0    0.0    0.0    
0.0    0.0    0.0    0.0    0.0    
0.0    0.0    0.0    0.0    0.0    
0.0    0.0    0.0    0.0    0.0    
0.0    0.0    0.0    0.0    0.0    
0.0    0.0    0.0    0.0    0.0    
0.0    0.0    0.0    0.0    0.0    
0.0    0.0    0.0    0.0    0.0    
0.0    0.0    0.0    0.0    0.0    
0.0    0.0    0.0    0.0    0.0    
0.0    0.0    0.0    0.0    0.0    
0.0    0.0    0.0    0.0    0.0    
0.0    0.0    0.0    0.0    0.0    
0.0    0.0    0.0    0.0    0.0    
0.0    0.0    0.0    0.0    0.0    
0.0    0.0    0.0    0.0    0.0    
0.0    0.0    0.0    0.0    0.0    
0.0    0.0    0.0    0.0    0.0    
0.0    0.0    0.0    0.0    0.0    
0.0    0.0    0.0    0.0    0.0    
0.0    0.0    0.0    0.0    0.0    
0.0    0.0    0.0    0.0    0.0    
0.0    0.0    0.0    0.0    0.0    
0.0    
0.0170823491265    0.058112593176    0.0585068593101    0.0585099380188    0.0585099595853    
0.0585099595799    0.0585099380121    0.058506859064    0.0581125934778    0.0170823474252    
0.000806791828804    0.00285157890389    0.00287203888833    0.00287222298241    0.00287222437224    
0.002872223636    0.00287222225682    0.00287203980808    0.0028515736645    0.000806787818434    
1.15808620857e-05    3.73739060235e-05    3.76267057293e-05    3.76289271284e-05    3.76289414529e-05    
3.76289344804e-05    3.76288699215e-05    3.76223020205e-05    3.73840258795e-05    1.15785707281e-05    
1.16260121774e-07    3.31392406962e-07    3.37128299251e-07    3.35525197849e-07    3.3707463383e-07    
3.34784140059e-07    3.36280706237e-07    3.30830972006e-07    3.37197766812e-07    1.14666783928e-07    
2.5322376818e-09    1.26373543637e-09    2.54295150186e-09    2.43139694124e-09    2.45856054265e-09    
2.4209874348e-09    2.40963994977e-09    -9.85229201064e-10    4.97399111862e-09    5.97833465965e-10    
6.83056571976e-10    -3.62060528877e-09    -1.64952341186e-09    -1.7222755898e-09    -1.72450408042e-09    
-2.46351733874e-09    -2.5132472812e-09    -5.4288103676e-09    5.22822129212e-10    -9.19650971455e-10    
-1.13054394323e-07    -3.35383291158e-07    -3.36209505338e-07    -3.36312897025e-07    -3.36315013628e-07    
-3.36320193618e-07    -3.36360330435e-07    -3.39690574985e-07    -3.31556562448e-07    -1.14931922056e-07    
-1.15772904538e-05    -3.73826198786e-05    -3.76236941216e-05    -3.76260974087e-05    -3.76261185538e-05    
-3.76266061696e-05    -3.76266353006e-05    -3.76272453056e-05    -3.73697477288e-05    -1.15759668299e-05    
-0.000806785191037    -0.00285157316137    -0.00287203824862    -0.00287222380999    -0.00287222379662    
-0.0028722252006    -0.0028722224428    -0.00287204277804    -0.00285157825091    -0.000806790923288    
-0.0170823475626    -0.0581125945533    -0.0585068605048    -0.0585099388909    -0.058509960819    
-0.0585099604589    -0.058509939277    -0.0585068621733    -0.0581125932158    -0.0170823491267    

-0.0168259297138    -0.000804402027452    -1.15509469623e-05    -1.16036529905e-07    -2.55779999688e-09    
-7.2127236381e-10    1.12762625427e-07    1.15470894712e-05    0.000804394942958    0.0168259283517    
-0.058112001982    -0.0028515992044    -3.73739387361e-05    -3.31322367309e-07    3.69744113877e-10    
3.66765268333e-09    3.35392596783e-07    3.73821015683e-05    0.00285159295197    0.0581120043059    
-0.0585068543801    -0.00287203898234    -3.7629056789e-05    -3.37196225488e-07    -3.31838310026e-09    
1.61089352015e-09    3.3541383214e-07    3.7622066548e-05    0.0028720406085    0.0585068557315    
-0.0585099379917    -0.00287222291115    -3.7628918355e-05    -3.35454226033e-07    -8.45924711985e-10    
1.76986173424e-09    3.36271852352e-07    3.76254948981e-05    0.00287222382132    0.058509939978    
-0.0585099595864    -0.00287222358292    -3.76305690153e-05    -3.36419118481e-07    -2.51107991248e-09    
2.40928515819e-09    3.36246618106e-07    3.76255371506e-05    0.00287222412667    0.0585099610154    
-0.0585099595863    -0.00287222357607    -3.7628915827e-05    -3.34725454556e-07    -8.25743765716e-10    
2.4989250654e-09    3.36296634802e-07    3.76266018017e-05    0.00287222518672    0.0585099615805    
-0.0585099379845    -0.00287222221527    -3.76305147676e-05    -3.36371962601e-07    -2.4739804655e-09    
2.45985653263e-09    3.36287282459e-07    3.76255746768e-05    0.00287222277533    0.0585099394389    
-0.058506854302    -0.00287204140753    -3.76242005172e-05    -3.32298654103e-07    1.57945965803e-09    
5.4404936862e-09    3.39227121837e-07    3.76272361152e-05    0.00287204272922    0.0585068583198    
-0.058112002044    -0.00285159549049    -3.73792593575e-05    -3.37139271578e-07    -4.83524628035e-09    
-5.33859533519e-10    3.31694179179e-07    3.73693919057e-05    0.00285159882869    0.0581120019506    
-0.0168259280085    -0.000804396668658    -1.15490100895e-05    -1.13749725114e-07    -4.79119729098e-10    
1.57918020374e-09    1.14793119389e-07    1.15471809587e-05    0.000804400480083    0.0168259297141    

2.60237797863e-17    2.82607030985e-17    2.53172217714e-17    2.59171158709e-17    2.50704676867e-17    
3.47112034592e-17    1.3382693002e-17    1.34591134216e-17    3.20056694185e-17    1.42253389042e-17    
2.02336180077e-17    1.69254758261e-17    3.29727130397e-17    8.11378666499e-18    5.14078220963e-17    
1.05579691766e-17    2.13796492442e-17    3.54736469711e-17    2.4539200378e-17    3.73402420891e-17    
1.4836580305e-17    2.68229485898e-17    3.00332740799e-17    4.33701116921e-17    3.23204432548e-17    
3.5868553354e-17    5.24776708303e-17    3.02070062421e-17    3.04102934878e-17    1.88909714965e-17    
3.29283339684e-17    2.87323887348e-17    3.71561720832e-17    3.85412183715e-17    4.08499205752e-17    
3.63872648072e-17    3.7908624297e-17    3.92310804506e-17    3.18679156849e-17    5.5591964976e-17    
1.7471794492e-17    2.67392605013e-17    3.27102936866e-17    3.94805357004e-17    3.94167719973e-17    
3.12536970846e-17    3.64000402629e-17    2.82784165854e-17    1.09943181979e-17    1.641185997e-17    
1.32678211956e-17    3.43000980525e-17    3.8058562688e-17    4.69726805942e-17    3.49913340459e-17    
3.78614519873e-17    3.1537532218e-17    3.90666026365e-17    4.39776836083e-17    3.22847543987e-17    
5.74214025293e-18    2.2266313739e-17    3.02879288248e-17    1.61675314441e-17    5.39902102007e-17    
4.84367682563e-17    3.86142198194e-17    3.04836572473e-17    4.20490060789e-17    2.69163893286e-17    
1.8600536897e-17    3.88715577587e-17    2.15297565601e-17    3.40406215463e-17    2.23153249956e-17    
5.06882782405e-17    2.68555740096e-17    3.14685783099e-17    4.25103422816e-17    5.25199726534e-18    
3.16608597381e-17    2.89011833606e-17    3.18376181567e-17    2.43285369826e-17    3.47041587588e-17    
1.14656615103e-17    6.25435447661e-17    4.45379103908e-17    3.39501151996e-17    2.47809481378e-17    
2.18449001292e-17    3.97454636579e-17    1.35291396463e-17    3.71580333835e-17    1.7373539513e-17    
3.18966718803e-17    2.01055392122e-17    2.44046246092e-17    7.41590151493e-18    1.32351349766e-17    

0.904822812857    0.876970480777    0.875757635675    0.875742817512    0.87574268952    
0.875742689536    0.875742817536    0.875757636882    0.876970479845    0.904822821589    
0.876975894136    1.00221897149    1.00113438848    1.00111409945    1.00111391577    
1.0011139162    1.00111409993    1.00113439048    1.00221896753    0.876975889305    
0.87575768144    1.00113438851    1.00004181158    1.00002140875    1.00002122409    
1.00002122409    1.00002140872    1.00004181062    1.00113439193    0.875757678238    
0.875742817785    1.00111409945    1.0000214087    1.0000010043    1.00000082002    
1.00000082005    1.0000010051    1.00002140732    1.00111410031    0.875742813946    
0.875742689486    1.00111391617    1.0000212245    1.00000082048    1.00000063582    
1.00000063582    1.00000082047    1.00002122394    1.00111391705    0.875742686925    
0.875742689486    1.00111391619    1.00002122405    1.00000082004    1.00000063536    
1.00000063579    1.00000082045    1.0000212235    1.00111391658    0.875742685632    
0.875742817799    1.00111409991    1.00002140914    1.00000100514    1.00000082047    
1.00000082047    1.00000100512    1.00002140859    1.00111410071    0.875742815168    
0.875757680797    1.00113439109    1.00004181073    1.00002140789    1.00002122323    
1.00002122349    1.00002140813    1.00004181002    1.00113438832    0.87575767325    
0.876975894458    1.00221896812    1.00113438999    1.00111410029    1.0011139172    
1.0011139166    1.00111410086    1.00113438841    1.00221897253    0.876975893484    
0.904822822333    0.876970477581    0.875757633791    0.875742816202    0.875742687378    
0.875742688202    0.875742815308    0.8757576309    0.876970479335    0.904822812858    

1.74061228203    1.53833493095    1.53439604814    1.53435129013    1.53435089531    
1.53435089536    1.5343512902    1.53439605172    1.53833492373    1.74061230435    
1.53834741738    1.01635287729    1.00829553113    1.0082108747    1.008210161    
1.00821016604    1.00821087997    1.00829554622    1.01635284747    1.53834739735    
1.53439616322    1.00829553117    1.00018938637    1.00010427006    1.00010355254    
1.00010355258    1.0001042699    1.00018937264    1.00829555676    1.53439615344    
1.53435129087    1.00821087471    1.00010426982    1.00001914418    1.0000184315    
1.00001843165    1.00001915395    1.00010425375    1.00821088663    1.53435127839    
1.53435089523    1.00821016593    1.0001035575    1.0000184367    1.00001771921    
1.00001771918    1.00001843662    1.00010354574    1.00821017522    1.53435088641    
1.53435089523    1.00821016601    1.00010355241    1.00001843161    1.00001771405    
1.00001771908    1.00001843652    1.00010354343    1.00821017276    1.53435088269    
1.53435129093    1.00821087989    1.00010427484    1.00001915415    1.00001843659    
1.00001843662    1.00001915398    1.00010426318    1.00821088872    1.53435128186    
1.53439616226    1.00829554992    1.00018937382    1.00010425741    1.00010353989    
1.00010354336    1.00010426074    1.00018936323    1.00829552883    1.53439613416    
1.53834741392    1.01635285112    1.00829554636    1.00821088651    1.00821017603    
1.0082101728    1.00821088953    1.00829553019    1.01635289401    1.53834741483    
1.74061230616    1.53833491556    1.53439604117    1.53435128493    1.53435088772    
1.53435089009    1.5343512823    1.53439602795    1.5383349262    1.74061228203    

3.82285713913e-07    3.54755618705e-07    3.54416757883e-07    3.54413241292e-07    3.54413209379e-07    
3.54413209383e-07    3.54413241298e-07    3.54416758157e-07    3.54755617661e-07    3.82285714895e-07    
3.54756177328e-07    2.27594740831e-07    2.26330564728e-07    2.26318887562e-07    2.26318791429e-07    
2.26318792266e-07    2.26318888432e-07    2.26330567105e-07    2.27594736149e-07    3.54756175171e-07    
3.54416764412e-07    2.26330564731e-07    2.25054545905e-07    2.25042751484e-07    2.25042654366e-07    
2.2504265437e-07    2.25042751459e-07    2.25054543577e-07    2.26330568758e-07    3.54416763632e-07    
3.54413241341e-07    2.26318887563e-07    2.25042751449e-07    2.25030954988e-07    2.25030858676e-07    
2.25030858697e-07    2.25030956622e-07    2.25042748773e-07    2.26318889574e-07    3.54413240264e-07    
3.54413209374e-07    2.2631879225e-07    2.25042655194e-07    2.25030859539e-07    2.25030762421e-07    
2.25030762415e-07    2.25030859526e-07    2.25042653154e-07    2.26318793779e-07    3.54413208564e-07    
3.54413209374e-07    2.26318792262e-07    2.25042654348e-07    2.25030858692e-07    2.25030761564e-07    
2.25030762401e-07    2.25030859512e-07    2.25042652811e-07    2.26318793417e-07    3.54413208291e-07    
3.54413241347e-07    2.26318888421e-07    2.25042752284e-07    2.25030956651e-07    2.25030859521e-07    
2.25030859526e-07    2.25030956625e-07    2.25042750258e-07    2.26318889882e-07    3.54413240513e-07    
3.54416764442e-07    2.26330567667e-07    2.25054543773e-07    2.25042749334e-07    2.25042652216e-07    
2.25042652801e-07    2.25042749898e-07    2.25054541974e-07    2.2633056434e-07    3.5441676166e-07    
3.54756176577e-07    2.27594736703e-07    2.26330567221e-07    2.26318889557e-07    2.26318793897e-07    
2.26318793422e-07    2.26318890001e-07    2.26330564571e-07    2.27594743673e-07    3.54756177066e-07    
3.82285714962e-07    3.54755616877e-07    3.54416757195e-07    3.54413240749e-07    3.5441320866e-07    
3.54413208834e-07    3.5441324055e-07    3.54416755671e-07    3.5475561829e-07    3.82285713912e-07    

1.92370512469    1.75414676397    1.75207841261    1.75205695034    1.75205675557    
1.7520567556    1.75205695037    1.75207841428    1.7541467576    1.92370513079    
1.7541501741    1.0141026125    1.00715302833    1.00708887753    1.00708834941    
1.00708835401    1.00708888231    1.00715304139    1.01410258675    1.75415016093    
1.75207845246    1.00715302835    1.00014756862    1.00008285953    1.00008232671    
1.00008232673    1.0000828594    1.00014755584    1.00715305047    1.75207844769    
1.75205695064    1.00708887754    1.00008285935    1.00001813987    1.00001761147    
1.00001761158    1.00001814883    1.00008284466    1.00708888859    1.75205694407    
1.75205675554    1.00708835392    1.00008233125    1.0000176162    1.00001708338    
1.00001708335    1.00001761613    1.00008232006    1.00708836232    1.7520567506    
1.75205675554    1.00708835399    1.00008232661    1.00001761156    1.00001707868    
1.00001708327    1.00001761606    1.00008231818    1.00708836033    1.75205674893    
1.75205695067    1.00708888225    1.00008286393    1.00001814899    1.00001761611    
1.00001761613    1.00001814885    1.00008285281    1.00708889028    1.75205694559    
1.75207845264    1.00715304448    1.00014755692    1.00008284774    1.00008231491    
1.00008231812    1.00008285084    1.00014754705    1.0071530262    1.75207843566    
1.75415016951    1.0141025898    1.00715304203    1.0070888885    1.00708836297    
1.00708836036    1.00708889094    1.00715302747    1.01410262814    1.7541501725    
1.92370513121    1.75414675281    1.75207840841    1.75205694703    1.75205675118    
1.75205675224    1.75205694581    1.75207839911    1.75414676144    1.92370512469    

1270.01333749    1209.5279983    1207.58449934    1207.561256    1207.56105401    
1207.56105403    1207.56125604    1207.58450122    1209.52799618    1270.01335051    
1209.53591123    1245.59428098    1242.62172497    1242.58150355    1242.58115175    
1242.58115337    1242.58150527    1242.62173051    1245.59427005    1209.53590284    
1207.58456766    1242.62172501    1239.62052606    1239.57999672    1239.57964233    
1239.57964235    1239.57999665    1239.62052187    1242.62173443    1207.58456262    
1207.56125642    1242.58150355    1239.5799966    1239.53946269    1239.53910982    
1239.53910989    1239.5394658    1239.57999143    1242.5815072    1207.56125026    
1207.56105396    1242.58115331    1239.57964391    1239.53911152    1239.53875714    
1239.53875713    1239.53911149    1239.57964058    1242.58115637    1207.56104978    
1207.56105396    1242.58115334    1239.57964227    1239.53910987    1239.53875546    
1239.53875708    1239.53911144    1239.5796396    1242.58115533    1207.56104778    
1207.56125644    1242.58150523    1239.57999823    1239.53946589    1239.53911148    
1239.53911149    1239.53946582    1239.57999494    1242.58150809    1207.56125215    
1207.5845668    1242.62173199    1239.62052225    1239.57999288    1239.57963849    
1239.57963957    1239.5799939    1239.62051904    1242.62172427    1207.58455417    
1209.53591108    1245.59427149    1242.62173005    1242.58150715    1242.58115671    
1242.58115535    1242.58150843    1242.62172467    1245.59428591    1209.53591012    
1270.01335161    1209.52799243    1207.58449619    1207.56125376    1207.56105048    
1207.56105176    1207.56125237    1207.58449098    1209.52799598    1270.01333749    

2     4     3     1     4     2     5     6     6     5     7     8     8     7     9     10     10     9     11     12     12     11     13     14     14     13     15     16     16     15     17     18     18     17     19     20     20     19     21     22     3     4     24     23     4     6     25     24     6     8     26     25     8     10     27     26     10     12     28     27     12     14     29     28     14     16     30     29     16     18     31     30     18     20     32     31     20     22     33     32     23     24     35     34     24     25     36     35     25     26     37     36     26     27     38     37     27     28     39     38     28     29     40     39     29     30     41     40     30     31     42     41     31     32     43     42     32     33     44     43     34     35     46     45     35     36     47     46     36     37     48     47     37     38     49     48     38     39     50     49     39     40     51     50     40     41     52     51     41     42     53     52     42     43     54     53     43     44     55     54     45     46     57     56     46     47     58     57     47     48     59     58     48     49     60     59     49     50     61     60     50     51     62     61     51     52     63     62     52     53     64     63     53     54     65     64     54     55     66     65     56     57     68     67     57     58     69     68     58     59     70     69     59     60     71     70     60     61     72     71     61     62     73     72     62     63     74     73     63     64     75     74     64     65     76     75     65     66     77     76     67     68     79     78     68     69     80     79     69     70     81     80     70     71     82     81     71     72     83     82     72     73     84     83     73     74     85     84     74     75     86     85     75     76     87     86     76     77     88     87     78     79     90     89     79     80     91     90     80     81     92     91     81     82     93     92     82     83     94     93     83     84     95     94     84     85     96     95     85     86     97     96     86     87     98     97     87     88     99     98     89     90     101     100     90     91     102     101     91     92     103     102     92     93     104     103     93     94     105     104     94     95     106     105     95     96     107     106     96     97     108     107     97     98     109     108     98     99     110     109     100     101     111     112     101     102     113     111     102     103     114     113     103     104     115     114     104     105     116     115     105     106     117     116     106     107     118     117     107     108     119     118     108     109     120     119     109     110     121     120     

