Title = " tecplot out file" 
variables = "x", "y", "z", "velX", "velY", "velZ","density","pressure","viscosity","temperature", "collisionFrequency",
Zone T = "nmesh0" N = 121 E = 100 DATAPACKING = BLOCK, VARLOCATION = ([4-11]=CELLCENTERED),  ZONETYPE=FEQUADRILATERAL 
0.0    
0.0    
0.1    
0.1    
0.0    

0.1    
0.0    
0.1    
0.0    
0.1    

0.0    
0.1    
0.0    
0.1    
0.0    

0.1    
0.0    
0.1    
0.0    
0.1    

0.0    
0.1    
0.2    
0.2    
0.2    

0.2    
0.2    
0.2    
0.2    
0.2    

0.2    
0.2    
0.2    
0.3    
0.3    

0.3    
0.3    
0.3    
0.3    
0.3    

0.3    
0.3    
0.3    
0.3    
0.4    

0.4    
0.4    
0.4    
0.4    
0.4    

0.4    
0.4    
0.4    
0.4    
0.4    

0.5    
0.5    
0.5    
0.5    
0.5    

0.5    
0.5    
0.5    
0.5    
0.5    

0.5    
0.6    
0.6    
0.6    
0.6    

0.6    
0.6    
0.6    
0.6    
0.6    

0.6    
0.6    
0.7    
0.7    
0.7    

0.7    
0.7    
0.7    
0.7    
0.7    

0.7    
0.7    
0.7    
0.8    
0.8    

0.8    
0.8    
0.8    
0.8    
0.8    

0.8    
0.8    
0.8    
0.8    
0.9    

0.9    
0.9    
0.9    
0.9    
0.9    

0.9    
0.9    
0.9    
0.9    
0.9    

1.0    
1.0    
1.0    
1.0    
1.0    

1.0    
1.0    
1.0    
1.0    
1.0    

1.0    
1.0    
0.9    
1.0    
0.9    
0.8    

0.8    
0.7    
0.7    
0.6    
0.6    

0.5    
0.5    
0.4    
0.4    
0.3    

0.3    
0.2    
0.2    
0.1    
0.1    

0.0    
0.0    
1.0    
0.9    
0.8    

0.7    
0.6    
0.5    
0.4    
0.3    

0.2    
0.1    
0.0    
1.0    
0.9    

0.8    
0.7    
0.6    
0.5    
0.4    

0.3    
0.2    
0.1    
0.0    
1.0    

0.9    
0.8    
0.7    
0.6    
0.5    

0.4    
0.3    
0.2    
0.1    
0.0    

1.0    
0.9    
0.8    
0.7    
0.6    

0.5    
0.4    
0.3    
0.2    
0.1    

0.0    
1.0    
0.9    
0.8    
0.7    

0.6    
0.5    
0.4    
0.3    
0.2    

0.1    
0.0    
1.0    
0.9    
0.8    

0.7    
0.6    
0.5    
0.4    
0.3    

0.2    
0.1    
0.0    
1.0    
0.9    

0.8    
0.7    
0.6    
0.5    
0.4    

0.3    
0.2    
0.1    
0.0    
1.0    

0.9    
0.8    
0.7    
0.6    
0.5    

0.4    
0.3    
0.2    
0.1    
0.0    

0.9    
1.0    
0.8    
0.7    
0.6    

0.5    
0.4    
0.3    
0.2    
0.1    

0.0    
0.0    0.0    0.0    0.0    0.0    
0.0    0.0    0.0    0.0    0.0    
0.0    0.0    0.0    0.0    0.0    
0.0    0.0    0.0    0.0    0.0    
0.0    0.0    0.0    0.0    0.0    
0.0    0.0    0.0    0.0    0.0    
0.0    0.0    0.0    0.0    0.0    
0.0    0.0    0.0    0.0    0.0    
0.0    0.0    0.0    0.0    0.0    
0.0    0.0    0.0    0.0    0.0    
0.0    0.0    0.0    0.0    0.0    
0.0    0.0    0.0    0.0    0.0    
0.0    0.0    0.0    0.0    0.0    
0.0    0.0    0.0    0.0    0.0    
0.0    0.0    0.0    0.0    0.0    
0.0    0.0    0.0    0.0    0.0    
0.0    0.0    0.0    0.0    0.0    
0.0    0.0    0.0    0.0    0.0    
0.0    0.0    0.0    0.0    0.0    
0.0    0.0    0.0    0.0    0.0    
0.0    0.0    0.0    0.0    0.0    
0.0    0.0    0.0    0.0    0.0    
0.0    0.0    0.0    0.0    0.0    
0.0    0.0    0.0    0.0    0.0    
0.0    
0.000127871357926    0.00315506321913    0.00337412510085    0.00338457898094    0.00338499445187    
0.00338499442227    0.00338457894214    0.00337412497143    0.00315506366526    0.000127871410568    
0.000658463132174    0.0145541612765    0.0153151322675    0.0153499572668    0.0153511650815    
0.0153511637461    0.0153499558808    0.0153151319219    0.014554155132    0.000658462674652    
5.49967896357e-05    0.0012418484184    0.0012931550626    0.00129523818934    0.00129530209316    
0.00129530203297    0.00129523768931    0.00129314725379    0.00124186497751    5.49973384815e-05    
2.71463924656e-06    5.79675111252e-05    5.97801544172e-05    5.98446642976e-05    5.98491701586e-05    
5.98451862419e-05    5.98455028121e-05    5.97676080026e-05    5.79797186325e-05    2.71475747656e-06    
9.95065004466e-08    1.93461913696e-06    1.98116925375e-06    1.98208898749e-06    1.98242698186e-06    
1.98198697999e-06    1.981953365e-06    1.97352628606e-06    1.94269749344e-06    9.95460320144e-08    
-9.9500484383e-08    -1.93983281904e-06    -1.97923952229e-06    -1.98092690703e-06    -1.98099235379e-06    
-1.98235902287e-06    -1.98264476195e-06    -1.98698111263e-06    -1.9313459171e-06    -9.94591870768e-08    
-2.71469740879e-06    -5.79761953921e-05    -5.97778879745e-05    -5.98454066625e-05    -5.98473370634e-05    
-5.98473936565e-05    -5.98457838729e-05    -5.97848781132e-05    -5.79667867505e-05    -2.71453550823e-06    
-5.49973002268e-05    -0.00124186080231    -0.00129314927502    -0.00129523260006    -0.00129529662121    
-0.00129529771063    -0.0012952340587    -0.00129315648311    -0.00124184053693    -5.49964812317e-05    
-0.0006584625562    -0.0145541537451    -0.0153151309326    -0.0153499589465    -0.0153511644366    
-0.0153511667255    -0.0153499567728    -0.0153151399544    -0.014554159579    -0.000658463471273    
-0.00012787139506    -0.00315506374504    -0.00337412509177    -0.00338457899043    -0.00338499447378    
-0.00338499446485    -0.0033845790265    -0.00337412561837    -0.00315506310231    -0.000127871359837    

-0.000128283625953    -0.000658452917397    -5.4953259105e-05    -2.71181196491e-06    -9.94005629708e-08    
9.93548258721e-08    2.71180708662e-06    5.49534136717e-05    0.000658452360328    0.000128283662679    
-0.00315501349787    -0.0145544853393    -0.00124185869958    -5.7967503857e-05    -1.93160650716e-06    
1.9402151369e-06    5.79762296412e-05    0.00124186993473    0.014554477022    0.00315501410348    
-0.00337411938603    -0.0153151477614    -0.00129315986883    -5.97807513132e-05    -1.98256224205e-06    
1.97901091232e-06    5.97762112174e-05    0.00129314751905    0.0153151498863    0.0033741193187    
-0.00338457864574    -0.0153499574733    -0.00129523829234    -5.98444560972e-05    -1.9792349073e-06    
1.98132281049e-06    5.98450765881e-05    0.00129523148967    0.0153499593091    0.00338457874661    
-0.00338499440948    -0.0153511635157    -0.00129530500246    -5.98483688724e-05    -1.98243501179e-06    
1.98215281326e-06    5.98471202038e-05    0.00129529580631    0.0153511646725    0.00338499449028    
-0.00338499440798    -0.0153511635195    -0.00129530206312    -5.9845027519e-05    -1.97908331719e-06    
1.98270745151e-06    5.98472968215e-05    0.0012952975793    0.0153511664076    0.00338499454504    
-0.00338457860762    -0.0153499562233    -0.00129524086082    -5.98461509262e-05    -1.98213751533e-06    
1.98244551799e-06    5.98455007382e-05    0.00129523221833    0.01534995754    0.00338457872114    
-0.00337411923007    -0.0153151499845    -0.00129315106509    -5.97704324174e-05    -1.97214649136e-06    
1.98709382992e-06    5.97840807275e-05    0.00129315681716    0.0153151547851    0.00337411992887    
-0.00315501390367    -0.0145544819917    -0.00124186778316    -5.79792619738e-05    -1.9425159959e-06    
1.93122779557e-06    5.79670872465e-05    0.00124184983784    0.0145544842882    0.00315501338424    
-0.000128283670224    -0.000658452490462    -5.49534220336e-05    -2.71185835686e-06    -9.94195632449e-08    
9.9366542823e-08    2.71167412748e-06    5.49526137823e-05    0.000658453273279    0.000128283628057    

2.12566757067e-17    2.94872240749e-17    2.27251283247e-17    2.3875534611e-17    9.43118598263e-18    
3.92355142451e-17    1.70858380137e-17    2.73691599367e-17    4.24260626131e-17    4.46651111265e-17    
3.27891171247e-17    2.97868735028e-17    2.52974186837e-17    5.49749773088e-17    2.93794031322e-17    
2.78807915704e-17    4.69984905912e-17    3.75774197392e-17    3.36961083881e-17    4.15867270248e-17    
1.25106539758e-17    3.99330089503e-17    3.55938661728e-17    3.60121356885e-17    1.83667276611e-17    
3.6848423476e-17    2.56671282138e-17    1.71726539841e-17    3.753268587e-17    2.45692285693e-17    
1.92391077321e-17    3.85097812355e-17    4.35155613548e-18    3.41972299983e-17    3.00454226913e-17    
2.68815445299e-17    4.36313151084e-17    2.63044102554e-17    1.30193670889e-17    2.85416802532e-17    
1.7748030089e-17    4.18310003273e-17    2.61249471161e-17    4.44547938795e-17    1.57078089449e-17    
2.77043666487e-17    5.34505966612e-17    3.9136383085e-17    5.26369366164e-17    2.88641936153e-17    
2.53240839705e-17    4.77909524388e-17    4.46137950449e-17    2.47825499232e-17    4.48662505933e-17    
3.68036223145e-17    4.18700372887e-17    5.22942275809e-17    3.70443995352e-17    3.0556672042e-17    
2.70034549122e-17    5.08946554577e-17    3.54418730015e-17    3.51689468173e-17    4.27517027405e-17    
5.85698521248e-17    4.57697429045e-17    3.69526315775e-17    2.14295963303e-17    2.2699043501e-17    
3.07805365141e-17    3.43894512412e-17    3.03325406001e-17    3.34086914292e-17    4.17926750014e-17    
3.82317702302e-17    4.40662411995e-17    3.47339079911e-17    4.12980401083e-17    3.93243926361e-17    
1.85724373971e-17    2.44523722476e-17    3.62392864612e-17    2.99382491562e-17    4.7118604437e-17    
3.91743791403e-17    4.39948744881e-17    3.04902326361e-17    -2.48033551184e-18    2.05656389772e-17    
2.15345317274e-17    3.74802440109e-17    2.19615508817e-17    2.42715418629e-17    1.0630609193e-17    
3.91367496238e-17    3.18184635148e-17    3.03267508998e-17    3.70742163538e-17    2.12977411724e-17    

0.853524365485    0.76995204611    0.763520613789    0.763220650692    0.763209812089    
0.763209812533    0.763220651424    0.76352061776    0.769952040637    0.853524382503    
0.769959072265    1.00509667295    1.00353904908    1.00278908638    1.00274718746    
1.00274718805    1.00278908751    1.00353904974    1.00509666852    0.769959055414    
0.763520997682    1.00353904924    1.00167933329    1.00089029204    1.00084666197    
1.00084666218    1.00089029161    1.00167933284    1.0035390531    0.763520992229    
0.76322066504    1.00278908642    1.00089029182    1.0000993756    1.00005568908    
1.00005568937    1.00009937587    1.00089028985    1.00278908816    0.763220654854    
0.763209812773    1.00274718786    1.00084666254    1.00005568991    1.00001200229    
1.00001200228    1.00005568969    1.00084666158    1.0027471895    0.763209805305    
0.763209812809    1.00274718815    1.00084666217    1.0000556895    1.00001200168    
1.00001200217    1.00005568963    1.00084666139    1.0027471887    0.76320980203    
0.763220665675    1.00278908757    1.00089029214    1.0000993763    1.00005568959    
1.00005568972    1.00009937586    1.00089029139    1.00278908782    0.763220657213    
0.763520999757    1.00353905076    1.00167933281    1.0008902907    1.00084666056    
1.00084666114    1.00089029074    1.00167933133    1.00353904868    0.763520975095    
0.769959068825    1.00509666968    1.0035390503    1.00278908783    1.00274718963    
1.00274718898    1.00278908793    1.0035390488    1.00509667496    0.769959071644    
0.853524384637    0.76995203454    0.763520609484    0.763220646843    0.763209806545    
0.763209808103    0.763220644393    0.763520597148    0.769952045015    0.853524365246    

1.70663232104    1.53074262271    1.51726211586    1.51662640328    1.51660303503    
1.51660303597    1.51662640483    1.5172621241    1.53074261033    1.70663235496    
1.53075674737    1.09480610759    1.05115220017    1.04867029689    1.04856691579    
1.04856692494    1.04867030798    1.0511522186    1.0948060628    1.53075671179    
1.51726290607    1.05115220517    1.00544175206    1.00288007857    1.0027746349    
1.00277463554    1.00288007759    1.00544172989    1.05115224531    1.51726289548    
1.51662643363    1.04867029739    1.00288007803    1.00031637706    1.00021093048    
1.00021093162    1.00031639246    1.00288004905    1.0486703204    1.516626413    
1.51660303652    1.04856692458    1.00277464421    1.00021094039    1.00010548884    
1.00010548896    1.00021093992    1.00277462178    1.04856694215    1.51660302134    
1.51660303659    1.04856692528    1.00277463572    1.00021093181    1.00010547978    
1.00010548868    1.00021093966    1.00277461893    1.04856693764    1.5166030147    
1.51662643499    1.0486703085    1.00288008645    1.00031639379    1.00021093926    
1.00021093988    1.00031639253    1.00288006466    1.0486703216    1.51662641772    
1.5172629108    1.05115222974    1.00544173142    1.00288005493    1.00277461117    
1.00277461807    1.0028800605    1.00544170978    1.05115220026    1.51726285948    
1.53075673914    1.09480606924    1.051152224    1.04867031946    1.04856694332    
1.04856693845    1.04867032276    1.05115219874    1.09480614012    1.53075674632    
1.70663235924    1.53074259791    1.51726210722    1.51662639552    1.51660302383    
1.51660302698    1.51662639049    1.51726208103    1.53074262075    1.70663232056    

3.94443094067e-07    3.92618776339e-07    3.92473337492e-07    3.92465031115e-07    3.92464647438e-07    
3.92464647451e-07    3.92465031134e-07    3.92473337564e-07    3.92618776029e-07    3.94443094046e-07    
3.92618808739e-07    2.41162999466e-07    2.33637342315e-07    2.3333165977e-07    2.33320924018e-07    
2.33320925557e-07    2.33331661557e-07    2.33637345508e-07    2.41162992334e-07    3.92618808309e-07    
3.92473343221e-07    2.33637343184e-07    2.25712040012e-07    2.25389940764e-07    2.25378703355e-07    
2.25378703434e-07    2.25389940665e-07    2.25712036063e-07    2.33637349683e-07    3.92473343271e-07    
3.92465031501e-07    2.33331659854e-07    2.25389940707e-07    2.25067197228e-07    2.25055942824e-07    
2.25055942981e-07    2.25067199985e-07    2.2538993579e-07    2.33331663671e-07    3.92465031419e-07    
3.92464647465e-07    2.33320925526e-07    2.25378704946e-07    2.2505594448e-07    2.25044688258e-07    
2.25044688281e-07    2.25055944434e-07    2.25378701038e-07    2.33320928385e-07    3.92464647395e-07    
3.92464647466e-07    2.33320925599e-07    2.25378703469e-07    2.25055942991e-07    2.25044686719e-07    
2.2504468825e-07    2.25055944398e-07    2.25378700554e-07    2.33320927723e-07    3.92464647365e-07    
3.92465031521e-07    2.33331661639e-07    2.2538994218e-07    2.25067200148e-07    2.25055944333e-07    
2.25055944421e-07    2.250672e-07    2.25389938351e-07    2.33331663953e-07    3.92465031426e-07    
3.92473343348e-07    2.3363734732e-07    2.25712036347e-07    2.25389936705e-07    2.25378699291e-07    
2.25378700442e-07    2.25389937712e-07    2.25712032681e-07    2.33637342406e-07    3.92473342864e-07    
3.92618808451e-07    2.4116299326e-07    2.33637346375e-07    2.33331663564e-07    2.33320928572e-07    
2.33320927817e-07    2.33331664141e-07    2.33637342109e-07    2.4116300488e-07    3.92618808777e-07    
3.94443094049e-07    3.92618775966e-07    3.92473337475e-07    3.92465031091e-07    3.92464647399e-07    
3.92464647411e-07    3.92465031057e-07    3.92473337123e-07    3.92618776385e-07    3.94443094065e-07    

1.99951212883    1.98810124662    1.98719207898    1.98714015653    1.9871377582    
1.98713775828    1.98714015665    1.98719207943    1.98810124468    1.9995121287    
1.98810144916    1.08925453347    1.04744524006    1.04575359977    1.0456941978    
1.04569420631    1.04575360965    1.04744525773    1.08925449371    1.98810144648    
1.98719211479    1.04744524487    1.00375611101    1.00198801661    1.00192634197    
1.0019263424    1.00198801607    1.00375608933    1.04744528084    1.98719211511    
1.98714015894    1.04575360023    1.0019880163    1.0002169799    1.00015523275    
1.00015523361    1.00021699503    1.00198798931    1.04575362135    1.98714015843    
1.98713775837    1.04569420615    1.0019263507    1.00015524183    1.00009348542    
1.00009348555    1.00015524158    1.00192632925    1.04569422196    1.98713775793    
1.98713775837    1.04569420655    1.00192634259    1.00015523366    1.00009347698    
1.00009348538    1.00015524138    1.00192632659    1.0456942183    1.98713775775    
1.98714015906    1.04575361011    1.00198802438    1.00021699592    1.00015524103    
1.00015524151    1.00021699511    1.00198800337    1.04575362291    1.98714015847    
1.98719211559    1.04744526777    1.00375609089    1.00198799433    1.00192631967    
1.00192632598    1.00198799986    1.00375607076    1.04744524057    1.98719211256    
1.98810144736    1.08925449887    1.04744526253    1.04575362076    1.045694223    
1.04569421882    1.04575362395    1.04744523892    1.08925456366    1.9881014494    
1.99951212872    1.98810124429    1.98719207887    1.98714015638    1.98713775796    
1.98713775803    1.98714015617    1.98719207668    1.98810124691    1.99951212882    

1206.84061179    1087.4903623    1078.3128052    1077.88381905    1077.8682647    
1077.86826533    1077.8838201    1078.31281085    1087.49035437    1206.84063584    
1087.50030718    1266.25403321    1254.92465898    1253.60178983    1253.53588203    
1253.5358847    1253.6017935    1254.92466384    1266.25401884    1087.5002831    
1078.31335106    1254.92466028    1242.50028413    1241.10573357    1241.03711784    
1241.03711819    1241.10573291    1242.50027847    1254.92467329    1078.31334339    
1077.88383956    1253.60178999    1241.10573322    1239.70822698    1239.63953305    
1239.6395336    1239.70823087    1241.10572443    1253.60179698    1077.88382512    
1077.86826568    1253.53588443    1241.03712059    1239.63953621    1239.57083928    
1239.57083929    1239.63953588    1241.03711435    1253.53589008    1077.86825509    
1077.86826573    1253.53588488    1241.03711822    1239.63953378    1239.57083653    
1239.57083912    1239.63953576    1241.0371135    1253.53588825    1077.86825045    
1077.88384047    1253.60179368    1241.10573553    1239.70823162    1239.63953562    
1239.6395359    1239.70823088    1241.10572965    1253.60179691    1077.88382846    
1078.31335407    1254.92466739    1242.5002788    1241.10572667    1241.03711084    
1241.03711304    1241.10572802    1242.50027223    1254.9246586    1078.31331893    
1087.50030214    1266.25402144    1254.92466562    1253.60179644    1253.53589048    
1253.53588871    1253.60179728    1254.92465837    1266.2540424    1087.50030633    
1206.84063886    1087.49034571    1078.31279911    1077.8838136    1077.86825685    
1077.86825905    1077.88381012    1078.31278146    1087.49036078    1206.84061145    

2     4     3     1     4     2     5     6     6     5     7     8     8     7     9     10     10     9     11     12     12     11     13     14     14     13     15     16     16     15     17     18     18     17     19     20     20     19     21     22     3     4     24     23     4     6     25     24     6     8     26     25     8     10     27     26     10     12     28     27     12     14     29     28     14     16     30     29     16     18     31     30     18     20     32     31     20     22     33     32     23     24     35     34     24     25     36     35     25     26     37     36     26     27     38     37     27     28     39     38     28     29     40     39     29     30     41     40     30     31     42     41     31     32     43     42     32     33     44     43     34     35     46     45     35     36     47     46     36     37     48     47     37     38     49     48     38     39     50     49     39     40     51     50     40     41     52     51     41     42     53     52     42     43     54     53     43     44     55     54     45     46     57     56     46     47     58     57     47     48     59     58     48     49     60     59     49     50     61     60     50     51     62     61     51     52     63     62     52     53     64     63     53     54     65     64     54     55     66     65     56     57     68     67     57     58     69     68     58     59     70     69     59     60     71     70     60     61     72     71     61     62     73     72     62     63     74     73     63     64     75     74     64     65     76     75     65     66     77     76     67     68     79     78     68     69     80     79     69     70     81     80     70     71     82     81     71     72     83     82     72     73     84     83     73     74     85     84     74     75     86     85     75     76     87     86     76     77     88     87     78     79     90     89     79     80     91     90     80     81     92     91     81     82     93     92     82     83     94     93     83     84     95     94     84     85     96     95     85     86     97     96     86     87     98     97     87     88     99     98     89     90     101     100     90     91     102     101     91     92     103     102     92     93     104     103     93     94     105     104     94     95     106     105     95     96     107     106     96     97     108     107     97     98     109     108     98     99     110     109     100     101     111     112     101     102     113     111     102     103     114     113     103     104     115     114     104     105     116     115     105     106     117     116     106     107     118     117     107     108     119     118     108     109     120     119     109     110     121     120     

