Title = " tecplot out file" 
variables = "x", "y", "z", "velX", "velY", "velZ","density","pressure","viscosity","temperature", "collisionFrequency",
Zone T = "nmesh0" N = 121 E = 100 DATAPACKING = BLOCK, VARLOCATION = ([4-11]=CELLCENTERED),  ZONETYPE=FEQUADRILATERAL 
0.0    
0.0    
0.1    
0.1    
0.0    

0.1    
0.0    
0.1    
0.0    
0.1    

0.0    
0.1    
0.0    
0.1    
0.0    

0.1    
0.0    
0.1    
0.0    
0.1    

0.0    
0.1    
0.2    
0.2    
0.2    

0.2    
0.2    
0.2    
0.2    
0.2    

0.2    
0.2    
0.2    
0.3    
0.3    

0.3    
0.3    
0.3    
0.3    
0.3    

0.3    
0.3    
0.3    
0.3    
0.4    

0.4    
0.4    
0.4    
0.4    
0.4    

0.4    
0.4    
0.4    
0.4    
0.4    

0.5    
0.5    
0.5    
0.5    
0.5    

0.5    
0.5    
0.5    
0.5    
0.5    

0.5    
0.6    
0.6    
0.6    
0.6    

0.6    
0.6    
0.6    
0.6    
0.6    

0.6    
0.6    
0.7    
0.7    
0.7    

0.7    
0.7    
0.7    
0.7    
0.7    

0.7    
0.7    
0.7    
0.8    
0.8    

0.8    
0.8    
0.8    
0.8    
0.8    

0.8    
0.8    
0.8    
0.8    
0.9    

0.9    
0.9    
0.9    
0.9    
0.9    

0.9    
0.9    
0.9    
0.9    
0.9    

1.0    
1.0    
1.0    
1.0    
1.0    

1.0    
1.0    
1.0    
1.0    
1.0    

1.0    
1.0    
0.9    
1.0    
0.9    
0.8    

0.8    
0.7    
0.7    
0.6    
0.6    

0.5    
0.5    
0.4    
0.4    
0.3    

0.3    
0.2    
0.2    
0.1    
0.1    

0.0    
0.0    
1.0    
0.9    
0.8    

0.7    
0.6    
0.5    
0.4    
0.3    

0.2    
0.1    
0.0    
1.0    
0.9    

0.8    
0.7    
0.6    
0.5    
0.4    

0.3    
0.2    
0.1    
0.0    
1.0    

0.9    
0.8    
0.7    
0.6    
0.5    

0.4    
0.3    
0.2    
0.1    
0.0    

1.0    
0.9    
0.8    
0.7    
0.6    

0.5    
0.4    
0.3    
0.2    
0.1    

0.0    
1.0    
0.9    
0.8    
0.7    

0.6    
0.5    
0.4    
0.3    
0.2    

0.1    
0.0    
1.0    
0.9    
0.8    

0.7    
0.6    
0.5    
0.4    
0.3    

0.2    
0.1    
0.0    
1.0    
0.9    

0.8    
0.7    
0.6    
0.5    
0.4    

0.3    
0.2    
0.1    
0.0    
1.0    

0.9    
0.8    
0.7    
0.6    
0.5    

0.4    
0.3    
0.2    
0.1    
0.0    

0.9    
1.0    
0.8    
0.7    
0.6    

0.5    
0.4    
0.3    
0.2    
0.1    

0.0    
0.0    0.0    0.0    0.0    0.0    
0.0    0.0    0.0    0.0    0.0    
0.0    0.0    0.0    0.0    0.0    
0.0    0.0    0.0    0.0    0.0    
0.0    0.0    0.0    0.0    0.0    
0.0    0.0    0.0    0.0    0.0    
0.0    0.0    0.0    0.0    0.0    
0.0    0.0    0.0    0.0    0.0    
0.0    0.0    0.0    0.0    0.0    
0.0    0.0    0.0    0.0    0.0    
0.0    0.0    0.0    0.0    0.0    
0.0    0.0    0.0    0.0    0.0    
0.0    0.0    0.0    0.0    0.0    
0.0    0.0    0.0    0.0    0.0    
0.0    0.0    0.0    0.0    0.0    
0.0    0.0    0.0    0.0    0.0    
0.0    0.0    0.0    0.0    0.0    
0.0    0.0    0.0    0.0    0.0    
0.0    0.0    0.0    0.0    0.0    
0.0    0.0    0.0    0.0    0.0    
0.0    0.0    0.0    0.0    0.0    
0.0    0.0    0.0    0.0    0.0    
0.0    0.0    0.0    0.0    0.0    
0.0    0.0    0.0    0.0    0.0    
0.0    
0.00239522727046    0.0193830551566    0.0198206907521    0.0198291905526    0.0198293338058    
0.0198293337863    0.0198291905287    0.019820690435    0.0193830560009    0.00239522634082    
0.000808774445917    0.00647924553911    0.00660097874623    0.00660331356916    0.00660334951099    
0.00660334839297    0.00660331246835    0.00660097979965    0.00647923807139    0.000808771390159    
2.99917368006e-05    0.000207908624073    0.000211218507799    0.000211279507761    0.000211280408122    
0.000211280386298    0.000211279326273    0.000211211769409    0.000207923741046    2.99901891865e-05    
7.03610537484e-07    4.06391068374e-06    4.12569010236e-06    4.12432652867e-06    4.12665155715e-06    
4.12320944242e-06    4.12535160515e-06    4.11584064036e-06    4.07316062144e-06    7.02364737334e-07    
1.40721899891e-08    5.95604031957e-08    6.23907413829e-08    6.21696275356e-08    6.22705212517e-08    
6.21301798978e-08    6.21162505495e-08    5.667672156e-08    6.54521072341e-08    1.25338213513e-08    
-1.14870361794e-08    -6.33136568123e-08    -6.10014131851e-08    -6.11219183103e-08    -6.11301756256e-08    
-6.225606254e-08    -6.23953502604e-08    -6.69424752002e-08    -5.67776190233e-08    -1.27579467197e-08    
-7.01048328666e-07    -4.07029317509e-06    -4.12420103942e-06    -4.12538316245e-06    -4.12540462951e-06    
-4.12542127293e-06    -4.12552347436e-06    -4.12972744508e-06    -4.06395561375e-06    -7.02468840766e-07    
-2.99891470487e-05    -0.000207921328618    -0.000211213891676    -0.0002112750554    -0.000211275983334    
-0.000211276759115    -0.000211275975656    -0.000211219401352    -0.000207902097692    -2.99881650815e-05    
-0.000808769229817    -0.00647923718888    -0.00660097753634    -0.00660331492922    -0.00660334855047    
-0.00660335086702    -0.00660331269665    -0.00660098499527    -0.00647924426492    -0.000808773842669    
-0.00239522638707    -0.0193830570144    -0.0198206917687    -0.0198291913113    -0.0198293348616    
-0.0198293345673    -0.0198291916566    -0.0198206933821    -0.0193830555336    -0.00239522727292    

-0.00235929939518    -0.000807551985336    -2.99317662899e-05    -7.02229929243e-07    -1.40662942072e-08    
1.14257062128e-08    6.99604888407e-07    2.99287003245e-05    0.000807546538531    0.00235929862392    
-0.0193825776789    -0.00647934027386    -0.000207909640494    -4.06380138344e-06    -5.70750285187e-08    
6.34481154492e-08    4.07027940768e-06    0.000207921455714    0.00647933116477    0.0193825803087    
-0.0198206787849    -0.00660098045705    -0.000211222099483    -4.12588929063e-06    -6.35565016297e-08    
6.09119297461e-08    4.12294837391e-06    0.000211211381636    0.0066009826648    0.0198206799881    
-0.019829190338    -0.0066033134602    -0.000211279523824    -4.12420464246e-06    -5.9772482783e-08    
6.12601611422e-08    4.12526637712e-06    0.000211274112042    0.0066033149563    0.0198291920652    
-0.0198293337885    -0.00660334828892    -0.000211282866991    -4.12573679187e-06    -6.23238567827e-08    
6.21543379467e-08    4.1252874428e-06    0.000211274964327    0.00660334903416    0.0198293350441    
-0.019829333788    -0.00660334827725    -0.000211280374859    -4.12310624197e-06    -5.97070341796e-08    
6.23755393962e-08    4.12537409616e-06    0.000211276729218    0.00660335079095    0.0198293355383    
-0.0198291903156    -0.00660331242334    -0.000211281854695    -4.12558987127e-06    -6.22189203895e-08    
6.2295919306e-08    4.12538826346e-06    0.000211274203511    0.00660331321748    0.0198291916224    
-0.0198206787278    -0.00660098380057    -0.000211214749274    -4.1181474953e-06    -5.58028362138e-08    
6.697862613e-08    4.12895712954e-06    0.000211219376366    0.00660098633412    0.0198206823891    
-0.0193825782443    -0.00647933516371    -0.000207917491472    -4.07295276476e-06    -6.52447685813e-08    
5.67350939386e-08    4.06416015973e-06    0.000207902274939    0.00647933952944    0.0193825779769    
-0.00235929844513    -0.000807547988709    -2.99302419241e-05    -7.00413909158e-07    -1.24042086404e-08    
1.32732650593e-08    7.01163484028e-07    2.99288633087e-05    0.000807551012832    0.00235929939765    

2.67035116881e-17    2.66233907359e-17    2.01558890203e-17    3.7340677827e-17    2.46628628933e-17    
3.31354081479e-17    5.33123398285e-17    2.71565907462e-17    2.01313935975e-17    4.94986153974e-17    
3.24396034168e-18    2.40804021492e-17    3.12359353146e-17    1.64239403191e-17    3.24206307988e-17    
4.93198901634e-17    1.96966701088e-17    3.52736527597e-17    5.29706542902e-17    2.85357999518e-17    
1.80699809698e-17    3.15480999145e-17    5.42834007951e-17    2.95167059151e-17    4.3052241517e-17    
5.33567593649e-17    2.65516169366e-17    1.97805767801e-17    4.28488858529e-17    2.31849698936e-17    
2.09761253564e-17    4.51344209066e-17    3.14932507676e-17    5.14026909491e-17    4.22990021952e-17    
4.45780849142e-17    3.55904551723e-17    3.40984259823e-17    4.25975800808e-17    4.19252924479e-17    
2.04277553951e-17    1.73889116249e-17    3.52002809363e-17    3.81765638114e-17    2.39376687869e-17    
3.62502848198e-17    3.32944832571e-17    3.82076168163e-17    4.47666125692e-17    3.54669102191e-17    
2.82460357639e-17    4.5324590581e-17    4.72976535152e-17    3.36869062237e-17    4.64830380137e-17    
5.10741177719e-17    3.76928855792e-17    4.02364706389e-17    3.97831948547e-17    3.2907548666e-17    
1.11731010959e-17    2.63477070425e-17    2.76634344021e-17    2.77473125719e-17    1.80415292924e-17    
4.22511423383e-17    4.7573670675e-17    -3.04471890073e-18    4.29874252185e-17    1.81509495486e-17    
2.63321479889e-17    3.93053792412e-17    3.06306175234e-17    3.34281881232e-17    3.37644225804e-17    
2.50661095487e-17    4.10270879911e-17    3.46755411125e-17    4.88586509312e-17    2.32786083559e-17    
2.5776217978e-17    3.92347152625e-17    3.95647428547e-17    1.45351516453e-17    3.31257291976e-17    
2.95668317663e-17    5.41953850172e-17    3.3981816836e-17    5.54489706182e-17    2.88536743905e-17    
4.05702416172e-17    2.36673253298e-17    2.11433057875e-17    1.75378429437e-17    2.40639716174e-17    
2.35125110495e-17    2.56030193909e-17    2.14998421747e-17    2.44556408142e-17    3.78970928928e-17    

0.869906415717    0.806744759275    0.80395967558    0.8038931491    0.803891937565    
0.803891937661    0.80389314924    0.803959678008    0.806744757086    0.869906432851    
0.806752071644    1.00399095949    1.00215103447    1.00202836755    1.00202573809    
1.00202573869    1.00202836834    1.00215103685    1.00399095415    0.806752060602    
0.803959833929    1.00215103471    1.00025750735    1.00013280826    1.00013014157    
1.00013014162    1.00013280813    1.00025750621    1.00215103954    0.803959827925    
0.803893151681    1.00202836755    1.00013280814    1.00000806653    1.00000539971    
1.00000539981    1.0000080675    1.00013280612    1.00202836892    0.803893143336    
0.803891937594    1.00202573862    1.00013014215    1.0000054004    1.00000273313    
1.00000273313    1.00000540035    1.00013014138    1.00202574006    0.803891931824    
0.803891937598    1.00202573869    1.00013014157    1.00000539981    1.00000273249    
1.00000273308    1.00000540031    1.00013014077    1.00202573929    0.80389192915    
0.803893151787    1.00202836832    1.0001328087    1.00000806763    1.00000540032    
1.00000540035    1.00000806751    1.000132808    1.00202836937    0.803893145722    
0.803959833694    1.00215103793    1.00025750627    1.00013280697    1.00013014028    
1.00013014071    1.00013280727    1.00025750513    1.00215103441    0.803959816909    
0.806752071434    1.00399095506    1.00215103654    1.00202836882    1.00202574029    
1.00202573936    1.0020283696    1.00215103444    1.0039909613    0.806752070425    
0.869906434396    0.806744752163    0.803959671402    0.803893145991    0.803891932829    
0.803891934428    0.803893144105    0.803959664602    0.806744757122    0.869906415694    

1.73047910462    1.54990564939    1.54292654108    1.54275950208    1.54275635871    
1.54275635894    1.54275950241    1.54292654701    1.54990564065    1.73047914188    
1.54992148984    1.03912157343    1.02018978313    1.01974664884    1.01973873617    
1.01973874393    1.01974665739    1.0201898052    1.03912152819    1.54992145868    
1.54292690505    1.02018978386    1.00095130757    1.00050272335    1.0004947323    
1.00049473247    1.00050272288    1.00095128736    1.02018982278    1.54292688981    
1.54275950838    1.01974664889    1.00050272295    1.00005404643    1.00004606158    
1.00004606198    1.00005406102    1.00050269801    1.01974666788    1.54275948729    
1.5427563588    1.01973874374    1.00049474002    1.0000460697    1.00003807773    
1.00003807768    1.00004606949    1.00049472184    1.01973875886    1.5427563439    
1.54275635881    1.01973874399    1.00049473233    1.000046062    1.00003806981    
1.00003807752    1.00004606933    1.00049471819    1.01973875465    1.54275633745    
1.54275950865    1.01974665735    1.0005027305    1.00005406153    1.00004606932    
1.00004606948    1.00005406102    1.00050271261    1.01974667087    1.54275949297    
1.54292690473    1.02018981155    1.00095128873    1.00050270358    1.00049471253    
1.00049471792    1.00050270852    1.00095127146    1.02018978016    1.54292686033    
1.54992148612    1.03912153384    1.02018980628    1.01974666755    1.01973876017    
1.01973875486    1.01974667223    1.02018978223    1.03912160117    1.54992148584    
1.73047914519    1.54990562756    1.54292652984    1.54275949362    1.54275634632    
1.54275635019    1.54275948899    1.54292651058    1.54990564309    1.73047910456    

3.92805790207e-07    3.81879952533e-07    3.81553796074e-07    3.81545910508e-07    3.81545746582e-07    
3.81545746592e-07    3.81545910521e-07    3.81553796328e-07    3.81879951629e-07    3.9280579079e-07    
3.81880310177e-07    2.31384623608e-07    2.2830298648e-07    2.28245288201e-07    2.28244338789e-07    
2.28244340087e-07    2.28245289606e-07    2.28302990043e-07    2.31384616447e-07    3.81880308192e-07    
3.81553808108e-07    2.28302986571e-07    2.2515406834e-07    2.25095062584e-07    2.25094092473e-07    
2.25094092495e-07    2.25095062522e-07    2.25154064865e-07    2.28302992734e-07    3.81553807363e-07    
3.81545910779e-07    2.2824528821e-07    2.25095062533e-07    2.25036029359e-07    2.25035060065e-07    
2.25035060119e-07    2.25036031842e-07    2.25095058356e-07    2.28245291402e-07    3.81545909761e-07    
3.8154574659e-07    2.28244340063e-07    2.25094093774e-07    2.25035061419e-07    2.25034090901e-07    
2.25034090894e-07    2.2503506139e-07    2.25094090603e-07    2.28244342539e-07    3.81545745823e-07    
3.8154574659e-07    2.28244340096e-07    2.25094092479e-07    2.25035060121e-07    2.25034089576e-07    
2.25034090874e-07    2.25035061368e-07    2.25094090049e-07    2.28244341918e-07    3.8154574556e-07    
3.81545910791e-07    2.28245289603e-07    2.25095063806e-07    2.25036031911e-07    2.25035061365e-07    
2.25035061386e-07    2.2503603184e-07    2.25095060674e-07    2.28245291861e-07    3.81545909982e-07    
3.81553808134e-07    2.28302990994e-07    2.25154065105e-07    2.25095059216e-07    2.25094089106e-07    
2.25094090011e-07    2.25095060062e-07    2.25154062166e-07    2.28302985955e-07    3.81553805693e-07    
3.81880309514e-07    2.31384617295e-07    2.28302990296e-07    2.28245291359e-07    2.28244342736e-07    
2.28244341944e-07    2.28245292065e-07    2.28302986324e-07    2.31384628275e-07    3.81880309845e-07    
3.92805790836e-07    3.81879950903e-07    3.81553795429e-07    3.8154591001e-07    3.81545745921e-07    
3.81545746081e-07    3.81545909807e-07    3.81553794186e-07    3.81879952102e-07    3.92805790206e-07    

1.98927042421    1.92118465174    1.91915911699    1.91911015015    1.91910913223    
1.91910913229    1.91911015024    1.91915911856    1.92118464612    1.98927042786    
1.92118687304    1.03499096641    1.01800002997    1.01768241485    1.01767718872    
1.01767719587    1.01768242258    1.01800004958    1.03499092686    1.92118686071    
1.91915919171    1.01800003047    1.00069362161    1.00036986597    1.00036454328    
1.0003645434    1.00036986563    1.00069360254    1.01800006439    1.91915918709    
1.91911015184    1.0176824149    1.00036986569    1.00004597953    1.00004066165    
1.00004066195    1.00004599315    1.00036984277    1.01768243247    1.91911014552    
1.91910913228    1.01767719574    1.00036455042    1.00004066908    1.0000353445    
1.00003534446    1.00004066892    1.00036453302    1.01767720937    1.91910912752    
1.91910913228    1.01767719592    1.00036454332    1.00004066196    1.00003533722    
1.00003534435    1.0000406688    1.00036452998    1.01767720595    1.91910912588    
1.91911015191    1.01768242257    1.00036987267    1.00004599353    1.00004066878    
1.0000406689    1.00004599314    1.00036985549    1.017682435    1.91911014689    
1.91915919187    1.01800005481    1.00069360385    1.00036984749    1.0003645248    
1.00036452977    1.00036985213    1.00069358773    1.01800002708    1.91915917671    
1.92118686892    1.03499093155    1.01800005097    1.01768243223    1.01767721045    
1.01767720609    1.01768243612    1.01800002911    1.03499099218    1.92118687098    
1.98927042814    1.92118464161    1.91915911298    1.91911014706    1.91910912812    
1.91910912912    1.9191101458    1.91915910526    1.92118464906    1.9892704242    

1228.80447857    1132.06850522    1127.93423341    1127.83543091    1127.8336175    
1127.83361764    1127.83543111    1127.93423699    1132.06850151    1228.8045032    
1132.07901503    1252.63970441    1246.41791956    1246.19146574    1246.18697964    
1246.18698205    1246.19146852    1246.41792708    1252.63968864    1132.07899815    
1127.93446391    1246.41791996    1240.01648683    1239.78567224    1239.78111322    
1239.78111331    1239.78567201    1240.01648092    1246.41793387    1127.93445497    
1127.83543472    1246.19146576    1239.78567204    1239.55477304    1239.55021501    
1239.5502152    1239.55477745    1239.78566414    1246.19147154    1127.8354223    
1127.83361755    1246.18698193    1239.78111562    1239.55021762    1239.54565746    
1239.54565744    1239.55021752    1239.78111057    1246.18698689    1127.83360892    
1127.83361755    1246.18698206    1239.78111323    1239.55021521    1239.54565495    
1239.54565736    1239.55021744    1239.7811091    1246.18698515    1127.83360499    
1127.83543487    1246.19146849    1239.78567437    1239.5547777    1239.55021745    
1239.55021752    1239.55477746    1239.78566946    1246.19147269    1127.8354258    
1127.9344636    1246.41792964    1240.0164813    1239.7856663    1239.78110728    
1239.78110897    1239.78566776    1240.0164761    1246.4179188    1127.93443836    
1132.07901427    1252.63969086    1246.41792701    1246.19147137    1246.18698743    
1246.18698526    1246.19147323    1246.41791931    1252.63971259    1132.07901309    
1228.80450541    1132.0684941    1127.9342271    1127.8354262    1127.8336104    
1127.83361275    1127.83542341    1127.9342167    1132.06850189    1228.80447853    

2     4     3     1     4     2     5     6     6     5     7     8     8     7     9     10     10     9     11     12     12     11     13     14     14     13     15     16     16     15     17     18     18     17     19     20     20     19     21     22     3     4     24     23     4     6     25     24     6     8     26     25     8     10     27     26     10     12     28     27     12     14     29     28     14     16     30     29     16     18     31     30     18     20     32     31     20     22     33     32     23     24     35     34     24     25     36     35     25     26     37     36     26     27     38     37     27     28     39     38     28     29     40     39     29     30     41     40     30     31     42     41     31     32     43     42     32     33     44     43     34     35     46     45     35     36     47     46     36     37     48     47     37     38     49     48     38     39     50     49     39     40     51     50     40     41     52     51     41     42     53     52     42     43     54     53     43     44     55     54     45     46     57     56     46     47     58     57     47     48     59     58     48     49     60     59     49     50     61     60     50     51     62     61     51     52     63     62     52     53     64     63     53     54     65     64     54     55     66     65     56     57     68     67     57     58     69     68     58     59     70     69     59     60     71     70     60     61     72     71     61     62     73     72     62     63     74     73     63     64     75     74     64     65     76     75     65     66     77     76     67     68     79     78     68     69     80     79     69     70     81     80     70     71     82     81     71     72     83     82     72     73     84     83     73     74     85     84     74     75     86     85     75     76     87     86     76     77     88     87     78     79     90     89     79     80     91     90     80     81     92     91     81     82     93     92     82     83     94     93     83     84     95     94     84     85     96     95     85     86     97     96     86     87     98     97     87     88     99     98     89     90     101     100     90     91     102     101     91     92     103     102     92     93     104     103     93     94     105     104     94     95     106     105     95     96     107     106     96     97     108     107     97     98     109     108     98     99     110     109     100     101     111     112     101     102     113     111     102     103     114     113     103     104     115     114     104     105     116     115     105     106     117     116     106     107     118     117     107     108     119     118     108     109     120     119     109     110     121     120     

