Title = " tecplot out file" 
variables = "x", "y", "z", "velX", "velY", "velZ","density","pressure","viscosity","temperature", "collisionFrequency",
Zone T = "nmesh0" N = 121 E = 100 DATAPACKING = BLOCK, VARLOCATION = ([4-11]=CELLCENTERED),  ZONETYPE=FEQUADRILATERAL 
0.0    
0.0    
0.1    
0.1    
0.0    

0.1    
0.0    
0.1    
0.0    
0.1    

0.0    
0.1    
0.0    
0.1    
0.0    

0.1    
0.0    
0.1    
0.0    
0.1    

0.0    
0.1    
0.2    
0.2    
0.2    

0.2    
0.2    
0.2    
0.2    
0.2    

0.2    
0.2    
0.2    
0.3    
0.3    

0.3    
0.3    
0.3    
0.3    
0.3    

0.3    
0.3    
0.3    
0.3    
0.4    

0.4    
0.4    
0.4    
0.4    
0.4    

0.4    
0.4    
0.4    
0.4    
0.4    

0.5    
0.5    
0.5    
0.5    
0.5    

0.5    
0.5    
0.5    
0.5    
0.5    

0.5    
0.6    
0.6    
0.6    
0.6    

0.6    
0.6    
0.6    
0.6    
0.6    

0.6    
0.6    
0.7    
0.7    
0.7    

0.7    
0.7    
0.7    
0.7    
0.7    

0.7    
0.7    
0.7    
0.8    
0.8    

0.8    
0.8    
0.8    
0.8    
0.8    

0.8    
0.8    
0.8    
0.8    
0.9    

0.9    
0.9    
0.9    
0.9    
0.9    

0.9    
0.9    
0.9    
0.9    
0.9    

1.0    
1.0    
1.0    
1.0    
1.0    

1.0    
1.0    
1.0    
1.0    
1.0    

1.0    
1.0    
0.9    
1.0    
0.9    
0.8    

0.8    
0.7    
0.7    
0.6    
0.6    

0.5    
0.5    
0.4    
0.4    
0.3    

0.3    
0.2    
0.2    
0.1    
0.1    

0.0    
0.0    
1.0    
0.9    
0.8    

0.7    
0.6    
0.5    
0.4    
0.3    

0.2    
0.1    
0.0    
1.0    
0.9    

0.8    
0.7    
0.6    
0.5    
0.4    

0.3    
0.2    
0.1    
0.0    
1.0    

0.9    
0.8    
0.7    
0.6    
0.5    

0.4    
0.3    
0.2    
0.1    
0.0    

1.0    
0.9    
0.8    
0.7    
0.6    

0.5    
0.4    
0.3    
0.2    
0.1    

0.0    
1.0    
0.9    
0.8    
0.7    

0.6    
0.5    
0.4    
0.3    
0.2    

0.1    
0.0    
1.0    
0.9    
0.8    

0.7    
0.6    
0.5    
0.4    
0.3    

0.2    
0.1    
0.0    
1.0    
0.9    

0.8    
0.7    
0.6    
0.5    
0.4    

0.3    
0.2    
0.1    
0.0    
1.0    

0.9    
0.8    
0.7    
0.6    
0.5    

0.4    
0.3    
0.2    
0.1    
0.0    

0.9    
1.0    
0.8    
0.7    
0.6    

0.5    
0.4    
0.3    
0.2    
0.1    

0.0    
0.0    0.0    0.0    0.0    0.0    
0.0    0.0    0.0    0.0    0.0    
0.0    0.0    0.0    0.0    0.0    
0.0    0.0    0.0    0.0    0.0    
0.0    0.0    0.0    0.0    0.0    
0.0    0.0    0.0    0.0    0.0    
0.0    0.0    0.0    0.0    0.0    
0.0    0.0    0.0    0.0    0.0    
0.0    0.0    0.0    0.0    0.0    
0.0    0.0    0.0    0.0    0.0    
0.0    0.0    0.0    0.0    0.0    
0.0    0.0    0.0    0.0    0.0    
0.0    0.0    0.0    0.0    0.0    
0.0    0.0    0.0    0.0    0.0    
0.0    0.0    0.0    0.0    0.0    
0.0    0.0    0.0    0.0    0.0    
0.0    0.0    0.0    0.0    0.0    
0.0    0.0    0.0    0.0    0.0    
0.0    0.0    0.0    0.0    0.0    
0.0    0.0    0.0    0.0    0.0    
0.0    0.0    0.0    0.0    0.0    
0.0    0.0    0.0    0.0    0.0    
0.0    0.0    0.0    0.0    0.0    
0.0    0.0    0.0    0.0    0.0    
0.0    
0.00763607344207    0.0370326810979    0.0375005878786    0.037506463843    0.03750652887    
0.0375065288582    0.0375064638287    0.0375005875644    0.0370326817649    0.00763607193136    
0.000873807910663    0.00442512182587    0.00447756643485    0.00447826828041    0.00447827601593    
0.00447827506518    0.00447826734628    0.00447756752738    0.00442511517159    0.000873803904238    
2.07528869545e-05    9.25265235725e-05    9.35041912344e-05    9.35170962857e-05    9.35172321049e-05    
9.35172190224e-05    9.35169872137e-05    9.34984653048e-05    9.25395463685e-05    2.07506233336e-05    
3.26698608804e-07    1.2453252469e-06    1.26214941454e-06    1.26024101983e-06    1.26222923015e-06    
1.25928333263e-06    1.26117138015e-06    1.25390989382e-06    1.25298624616e-06    3.25056633703e-07    
5.71357666875e-09    1.1882189892e-08    1.36846200022e-08    1.35226456e-08    1.35787913382e-08    
1.3501293064e-08    1.34857538203e-08    8.98912205976e-09    1.67588350007e-08    3.70923193485e-09    
-2.37490094932e-09    -1.49825211359e-08    -1.25278139667e-08    -1.26166352402e-08    -1.26210191208e-08    
-1.35764879355e-08    -1.36667254357e-08    -1.74798609481e-08    -9.53779246985e-09    -4.03296798526e-09    
-3.23375316453e-07    -1.25058900693e-06    -1.26093898397e-06    -1.26121060674e-06    -1.26121585849e-06    
-1.26122564279e-06    -1.26129821209e-06    -1.2655341801e-06    -1.24546866764e-06    -3.2528696656e-07    
-2.07492909476e-05    -9.25376480551e-05    -9.35002922522e-05    -9.35133756407e-05    -9.3513525594e-05    
-9.3514165476e-05    -9.35141072743e-05    -9.35049093041e-05    -9.25210518096e-05    -2.07480623551e-05    
-0.000873801150261    -0.00442511447783    -0.00447756549216    -0.00447826939747    -0.00447827521224    
-0.00447827713259    -0.00447826753855    -0.00447757161272    -0.00442512085963    -0.000873807014156    
-0.00763607203479    -0.0370326829577    -0.0375005891475    -0.0375064647757    -0.0375065301817    
-0.0375065298049    -0.0375064651947    -0.0375005910027    -0.037032681373    -0.00763607344306    

-0.00751961906323    -0.000871747929838    -2.07036701298e-05    -3.26019035376e-07    -5.72962694245e-09    
2.32828190284e-09    3.22626906493e-07    2.06996566091e-05    0.000871740787234    0.00751961783357    
-0.0370320602856    -0.00442516957437    -9.25268078232e-05    -1.24523368817e-06    -9.77219820111e-09    
1.50648423954e-08    1.25059080327e-06    9.25371980105e-05    0.00442516156862    0.0370320631246    
-0.037500578783    -0.00447756694988    -9.35072305927e-05    -1.26226947591e-06    -1.46803455038e-08    
1.24682830477e-08    1.2598983485e-06    9.3498133286e-05    0.00447756895059    0.0375005802583    
-0.0375064637464    -0.00447826818627    -9.35170967628e-05    -1.26014576613e-06    -1.14799121983e-08    
1.27005438813e-08    1.26113938244e-06    9.35125834035e-05    0.0044782694151    0.0375064658711    
-0.0375065288644    -0.00447827499027    -9.3519328789e-05    -1.26140975199e-06    -1.36359072768e-08    
1.35009106472e-08    1.26112473387e-06    9.35126928992e-05    0.00447827564449    0.0375065303979    
-0.0375065288641    -0.00447827497962    -9.35172015799e-05    -1.25920237026e-06    -1.14411266611e-08    
1.36461231546e-08    1.2611916554e-06    9.35141527608e-05    0.00447827709766    0.0375065310039    
-0.037506463732    -0.00447826729718    -9.3519120727e-05    -1.26132298421e-06    -1.35685946438e-08    
1.35925734485e-08    1.26119740822e-06    9.35126495775e-05    0.00447826798132    0.0375064653075    
-0.0375005787228    -0.0044775699976    -9.35009693253e-05    -1.25584206215e-06    -8.24968175549e-09    
1.7501831772e-08    1.26489923896e-06    9.35048909634e-05    0.00447757187989    0.0375005830909    
-0.0370320606517    -0.00442516491214    -9.25335866923e-05    -1.25286738829e-06    -1.65777392667e-08    
9.51425330879e-09    1.24564720265e-06    9.25207183412e-05    0.00442516901493    0.03703206047    
-0.00751961753546    -0.000871742606166    -2.07016534326e-05    -3.23652171901e-07    -3.57389573128e-09    
4.71800399004e-09    3.24703004206e-07    2.06999096588e-05    0.000871746458111    0.0075196190642    

3.50268106917e-17    1.75774803659e-17    2.81500624572e-17    3.59616971246e-17    1.15353182572e-17    
3.94036687439e-17    4.05250687127e-17    3.95493458141e-17    4.55137550444e-17    1.78062467667e-17    
2.80385691614e-17    3.295684989e-17    4.83529175165e-17    2.76476355244e-17    3.52787908693e-17    
3.35799282974e-17    3.05880431371e-17    2.87156793532e-17    5.31046614679e-17    4.29009266773e-17    
2.54936523084e-17    3.98287627163e-17    4.3510578875e-17    4.87076507755e-17    4.90084112429e-17    
4.74222798733e-17    3.02961215193e-17    4.84516038369e-17    1.23593653626e-17    2.85285339806e-17    
1.77124112217e-17    4.31253708686e-17    2.96311432968e-17    1.92551927782e-17    4.41165952402e-17    
4.65498424525e-17    4.03104334022e-17    3.02136856246e-17    4.33246806975e-17    2.93135053048e-17    
2.27141271793e-17    2.8856635459e-17    5.98276284519e-17    3.96513409024e-17    3.77574845818e-17    
1.84977049969e-17    3.94843165256e-17    2.59047842882e-17    3.98840533927e-17    3.31220943942e-17    
2.7559758099e-17    4.50620964296e-17    4.58647748636e-17    3.0970516018e-17    2.62575070184e-17    
2.76104592199e-17    2.57733508471e-17    2.04703382449e-17    2.73741977352e-17    3.92463423497e-17    
2.08021111122e-17    2.05773034358e-17    2.71416990872e-17    3.49715195616e-17    3.75830167719e-17    
2.92932381698e-17    9.14269947483e-18    3.24581270175e-17    4.11058057711e-17    3.72724964783e-17    
4.89277171523e-18    3.87011194117e-17    2.92978080313e-17    4.03664458926e-17    2.79501025253e-17    
5.01216164938e-17    3.59299613452e-17    1.4594980152e-17    2.56166587675e-17    4.25551420591e-17    
1.60137925931e-17    1.8094719922e-17    4.82582115211e-17    4.28365425727e-17    4.40785580502e-17    
3.08992968233e-17    5.09014345629e-17    5.8531382625e-17    4.1721557337e-17    3.81846024893e-17    
1.16375772558e-17    2.56671417998e-17    2.58981216566e-17    6.23005143082e-18    2.1189785171e-17    
3.04734493222e-17    2.42243800158e-17    1.34213072181e-17    1.43909929148e-17    3.44632966372e-17    

0.883124509887    0.837743216072    0.835857847253    0.835824567796    0.835824136724    
0.835824136767    0.835824567857    0.835857849031    0.837743214715    0.883124523047    
0.837749854149    1.00312100608    1.0016260599    1.0015735156    1.00157276989    
1.00157277043    1.00157351624    1.00162606226    1.0031210012    0.837749846487    
0.835857939889    1.00162605999    1.00010908836    1.00005602803    1.00005527574    
1.00005527576    1.00005602797    1.00010908724    1.00162606432    0.835857935227    
0.835824568769    1.0015735156    1.00005602795    1.0000029595    1.0000022076    
1.00000220766    1.00000296045    1.00005602618    1.00157351673    0.835824562721    
0.835824136701    1.00157277039    1.00005527625    1.0000022082    1.00000145585    
1.00000145584    1.00000220817    1.00005527557    1.00157277157    0.835824132594    
0.835824136702    1.00157277042    1.00005527571    1.00000220765    1.00000145527    
1.00000145581    1.00000220814    1.00005527501    1.00157277094    0.835824130612    
0.835824568811    1.00157351621    1.00005602848    1.00000296053    1.00000220816    
1.00000220817    1.00000296047    1.00005602783    1.0015735172    0.835824564549    
0.835857939332    1.00162606309    1.00010908733    1.00005602693    1.00005527463    
1.00005527498    1.00005602721    1.00010908639    1.00162605975    0.83585792741    
0.837749854437    1.00312100197    1.00162606179    1.00157351668    1.00157277177    
1.00157277097    1.00157351741    1.00162605984    1.00312100754    0.837749853249    
0.883124524184    0.83774321116    0.835857844223    0.835824565628    0.835824133311    
0.835824134542    0.835824564243    0.83585783958    0.837743214261    0.883124509885    

1.73607749599    1.5470733151    1.54168023855    1.54158798332    1.54158675473    
1.54158675484    1.54158798348    1.54168024335    1.54707330697    1.73607752684    
1.54708825157    1.0259847603    1.01327710712    1.01307364801    1.01307109887    
1.01307110545    1.01307365504    1.01327712655    1.02598472138    1.54708822533    
1.54168046291    1.01327710734    1.00044127091    1.00023611914    1.00023355073    
1.00023355082    1.00023611884    1.00044125337    1.01327714071    1.54168044976    
1.54158798585    1.01307364802    1.00023611882    1.00003093906    1.0000283767    
1.00002837695    1.00003095164    1.00023609775    1.01307366385    1.54158796854    
1.54158675468    1.01307110529    1.00023355723    1.00002838353    1.000025815    
1.00002581495    1.00002838338    1.0002335419    1.0130711178    1.54158674248    
1.54158675469    1.01307110544    1.00023355064    1.00002837693    1.00002580828    
1.00002581482    1.00002838325    1.00023353879    1.01307111438    1.54158673725    
1.54158798597    1.01307365496    1.00023612529    1.00003095197    1.00002838331    
1.00002838338    1.00003095166    1.00023611013    1.01307366655    1.5415879733    
1.54168046197    1.01327713155    1.00044125471    1.00023610252    1.00023353412    
1.00023353864    1.00023610678    1.0004412405    1.01327710426    1.54168042478    
1.54708824804    1.02598472617    1.01327712697    1.01307366364    1.01307111889    
1.01307111448    1.01307366766    1.01327710616    1.02598478304    1.54708824812    
1.73607752943    1.54707329596    1.54168022903    1.54158797626    1.54158674437    
1.54158674764    1.54158797253    1.54168021247    1.54707330923    1.73607749598    

3.89053287352e-07    3.69845094106e-07    3.69474105279e-07    3.69468111774e-07    3.69468027614e-07    
3.69468027621e-07    3.69468111784e-07    3.69474105573e-07    3.69845093015e-07    3.89053288255e-07    
3.69845612635e-07    2.29173198406e-07    2.27145533075e-07    2.2711823957e-07    2.27117913636e-07    
2.27117914731e-07    2.2711824073e-07    2.27145536169e-07    2.29173192268e-07    3.69845610294e-07    
3.69474115662e-07    2.27145533097e-07    2.25088187791e-07    2.25060471834e-07    2.25060140861e-07    
2.25060140872e-07    2.25060471791e-07    2.25088184799e-07    2.27145538361e-07    3.6947411478e-07    
3.69468111917e-07    2.27118239573e-07    2.2506047179e-07    2.25032748469e-07    2.25032418479e-07    
2.25032418514e-07    2.25032750589e-07    2.25060468273e-07    2.27118242239e-07    3.69468110723e-07    
3.69468027614e-07    2.27117914711e-07    2.25060141951e-07    2.25032419615e-07    2.25032088582e-07    
2.25032088574e-07    2.25032419593e-07    2.25060139281e-07    2.27117916764e-07    3.69468026716e-07    
3.69468027614e-07    2.27117914732e-07    2.2506014085e-07    2.25032418512e-07    2.25032087461e-07    
2.25032088556e-07    2.25032419576e-07    2.25060138817e-07    2.27117916261e-07    3.6946802641e-07    
3.69468111927e-07    2.2711824072e-07    2.25060472874e-07    2.25032750635e-07    2.25032419582e-07    
2.25032419592e-07    2.25032750589e-07    2.25060470229e-07    2.27118242641e-07    3.69468110992e-07    
3.69474115679e-07    2.27145536923e-07    2.25088185026e-07    2.25060469007e-07    2.25060138034e-07    
2.25060138795e-07    2.25060469731e-07    2.25088182608e-07    2.27145532583e-07    3.69474112729e-07    
3.69845611849e-07    2.29173192992e-07    2.27145536331e-07    2.2711824221e-07    2.27117916926e-07    
2.27117916273e-07    2.27118242807e-07    2.27145532909e-07    2.29173202252e-07    3.69845612289e-07    
3.8905328832e-07    3.69845092155e-07    3.69474104514e-07    3.69468111181e-07    3.69468026826e-07    
3.69468027018e-07    3.69468110952e-07    3.69474102962e-07    3.69845093615e-07    3.89053287351e-07    

1.96583548136    1.84671541998    1.84442874302    1.84439180507    1.84439128639    
1.84439128643    1.84439180512    1.84442874484    1.84671541326    1.96583548699    
1.84671861643    1.02279261832    1.01163213268    1.0114820652    1.01148027315    
1.01148027917    1.01148207158    1.01163214969    1.0227925845    1.84671860201    
1.84442880702    1.0116321328    1.00033214631    1.00018008102    1.00017826514    
1.0001782652    1.00018008078    1.0003321299    1.01163216175    1.84442880158    
1.84439180595    1.01148206522    1.00018008078    1.00002797947    1.00002616905    
1.00002616923    1.00002799111    1.00018006148    1.01148207988    1.84439179859    
1.84439128639    1.01148027906    1.00017827112    1.00002617527    1.00002435912    
1.00002435908    1.00002617516    1.00017825647    1.01148029035    1.84439128086    
1.84439128639    1.01148027918    1.00017826508    1.00002616923    1.00002435297    
1.00002435898    1.00002617506    1.00017825393    1.01148028758    1.84439127897    
1.84439180601    1.01148207152    1.00018008672    1.00002799136    1.00002617509    
1.00002617515    1.00002799111    1.00018007221    1.01148208209    1.84439180025    
1.84442880712    1.01163215384    1.00033213115    1.00018006551    1.00017824963    
1.00017825381    1.00018006948    1.00033211788    1.01163212997    1.84442878894    
1.84671861159    1.02279258849    1.01163215058    1.01148207972    1.01148029124    
1.01148028765    1.011482083    1.01163213177    1.02279263951    1.8467186143    
1.9658354874    1.84671540795    1.84442873831    1.84439180141    1.84439128153    
1.84439128272    1.8443918    1.84442872875    1.84671541696    1.96583548135    

1244.6702957    1166.77023052    1163.87035494    1163.81958727    1163.81892485    
1163.81892491    1163.81958736    1163.87035763    1166.77022783    1244.67031492    
1166.77985945    1248.73818138    1244.28062035    1244.18027636    1244.1789312    
1244.17893327    1244.18027864    1244.28062726    1248.73816745    1166.77984704    
1163.8704916    1244.28062049    1239.74738671    1239.64580478    1239.64444464    
1239.64444468    1239.64580465    1239.74738145    1244.28063263    1163.87048446    
1163.81958873    1244.18027636    1239.64580462    1239.54420354    1239.54284516    
1239.54284528    1239.54420746    1239.64579789    1244.18028119    1163.81957942    
1163.81892482    1244.17893319    1239.64444668    1239.54284737    1239.54148709    
1239.54148707    1239.54284731    1239.64444239    1244.17893731    1163.81891843    
1163.81892482    1244.17893326    1239.64444458    1239.54284527    1239.54148492    
1239.541487    1239.54284724    1239.64444109    1244.17893587    1163.81891545    
1163.81958879    1244.1802786    1239.64580668    1239.54420762    1239.54284728    
1239.54284731    1239.54420748    1239.64580246    1244.1802823    1163.81958217    
1163.87049084    1244.28062926    1239.74738186    1239.64579976    1239.64443961    
1239.64444103    1239.64580105    1239.74737757    1244.28061953    1163.87047206    
1166.77985927    1248.73816933    1244.28062689    1244.18028109    1244.17893777    
1244.17893593    1244.18028276    1244.28062007    1248.7381881    1166.77985794    
1244.67031658    1166.77022224    1163.87035016    1163.81958381    1163.81891951    
1163.81892137    1163.81958171    1163.87034255    1166.77022764    1244.67029569    

2     4     3     1     4     2     5     6     6     5     7     8     8     7     9     10     10     9     11     12     12     11     13     14     14     13     15     16     16     15     17     18     18     17     19     20     20     19     21     22     3     4     24     23     4     6     25     24     6     8     26     25     8     10     27     26     10     12     28     27     12     14     29     28     14     16     30     29     16     18     31     30     18     20     32     31     20     22     33     32     23     24     35     34     24     25     36     35     25     26     37     36     26     27     38     37     27     28     39     38     28     29     40     39     29     30     41     40     30     31     42     41     31     32     43     42     32     33     44     43     34     35     46     45     35     36     47     46     36     37     48     47     37     38     49     48     38     39     50     49     39     40     51     50     40     41     52     51     41     42     53     52     42     43     54     53     43     44     55     54     45     46     57     56     46     47     58     57     47     48     59     58     48     49     60     59     49     50     61     60     50     51     62     61     51     52     63     62     52     53     64     63     53     54     65     64     54     55     66     65     56     57     68     67     57     58     69     68     58     59     70     69     59     60     71     70     60     61     72     71     61     62     73     72     62     63     74     73     63     64     75     74     64     65     76     75     65     66     77     76     67     68     79     78     68     69     80     79     69     70     81     80     70     71     82     81     71     72     83     82     72     73     84     83     73     74     85     84     74     75     86     85     75     76     87     86     76     77     88     87     78     79     90     89     79     80     91     90     80     81     92     91     81     82     93     92     82     83     94     93     83     84     95     94     84     85     96     95     85     86     97     96     86     87     98     97     87     88     99     98     89     90     101     100     90     91     102     101     91     92     103     102     92     93     104     103     93     94     105     104     94     95     106     105     95     96     107     106     96     97     108     107     97     98     109     108     98     99     110     109     100     101     111     112     101     102     113     111     102     103     114     113     103     104     115     114     104     105     116     115     105     106     117     116     106     107     118     117     107     108     119     118     108     109     120     119     109     110     121     120     

