Title = " tecplot out file" 
variables = "x", "y", "z", "velX", "velY", "velZ","density","pressure","viscosity","temperature", "collisionFrequency",
Zone T = "nmesh0" N = 121 E = 100 DATAPACKING = BLOCK, VARLOCATION = ([4-11]=CELLCENTERED),  ZONETYPE=FEQUADRILATERAL 
0.0    
0.0    
0.1    
0.1    
0.0    

0.1    
0.0    
0.1    
0.0    
0.1    

0.0    
0.1    
0.0    
0.1    
0.0    

0.1    
0.0    
0.1    
0.0    
0.1    

0.0    
0.1    
0.2    
0.2    
0.2    

0.2    
0.2    
0.2    
0.2    
0.2    

0.2    
0.2    
0.2    
0.3    
0.3    

0.3    
0.3    
0.3    
0.3    
0.3    

0.3    
0.3    
0.3    
0.3    
0.4    

0.4    
0.4    
0.4    
0.4    
0.4    

0.4    
0.4    
0.4    
0.4    
0.4    

0.5    
0.5    
0.5    
0.5    
0.5    

0.5    
0.5    
0.5    
0.5    
0.5    

0.5    
0.6    
0.6    
0.6    
0.6    

0.6    
0.6    
0.6    
0.6    
0.6    

0.6    
0.6    
0.7    
0.7    
0.7    

0.7    
0.7    
0.7    
0.7    
0.7    

0.7    
0.7    
0.7    
0.8    
0.8    

0.8    
0.8    
0.8    
0.8    
0.8    

0.8    
0.8    
0.8    
0.8    
0.9    

0.9    
0.9    
0.9    
0.9    
0.9    

0.9    
0.9    
0.9    
0.9    
0.9    

1.0    
1.0    
1.0    
1.0    
1.0    

1.0    
1.0    
1.0    
1.0    
1.0    

1.0    
1.0    
0.9    
1.0    
0.9    
0.8    

0.8    
0.7    
0.7    
0.6    
0.6    

0.5    
0.5    
0.4    
0.4    
0.3    

0.3    
0.2    
0.2    
0.1    
0.1    

0.0    
0.0    
1.0    
0.9    
0.8    

0.7    
0.6    
0.5    
0.4    
0.3    

0.2    
0.1    
0.0    
1.0    
0.9    

0.8    
0.7    
0.6    
0.5    
0.4    

0.3    
0.2    
0.1    
0.0    
1.0    

0.9    
0.8    
0.7    
0.6    
0.5    

0.4    
0.3    
0.2    
0.1    
0.0    

1.0    
0.9    
0.8    
0.7    
0.6    

0.5    
0.4    
0.3    
0.2    
0.1    

0.0    
1.0    
0.9    
0.8    
0.7    

0.6    
0.5    
0.4    
0.3    
0.2    

0.1    
0.0    
1.0    
0.9    
0.8    

0.7    
0.6    
0.5    
0.4    
0.3    

0.2    
0.1    
0.0    
1.0    
0.9    

0.8    
0.7    
0.6    
0.5    
0.4    

0.3    
0.2    
0.1    
0.0    
1.0    

0.9    
0.8    
0.7    
0.6    
0.5    

0.4    
0.3    
0.2    
0.1    
0.0    

0.9    
1.0    
0.8    
0.7    
0.6    

0.5    
0.4    
0.3    
0.2    
0.1    

0.0    
0.0    0.0    0.0    0.0    0.0    
0.0    0.0    0.0    0.0    0.0    
0.0    0.0    0.0    0.0    0.0    
0.0    0.0    0.0    0.0    0.0    
0.0    0.0    0.0    0.0    0.0    
0.0    0.0    0.0    0.0    0.0    
0.0    0.0    0.0    0.0    0.0    
0.0    0.0    0.0    0.0    0.0    
0.0    0.0    0.0    0.0    0.0    
0.0    0.0    0.0    0.0    0.0    
0.0    0.0    0.0    0.0    0.0    
0.0    0.0    0.0    0.0    0.0    
0.0    0.0    0.0    0.0    0.0    
0.0    0.0    0.0    0.0    0.0    
0.0    0.0    0.0    0.0    0.0    
0.0    0.0    0.0    0.0    0.0    
0.0    0.0    0.0    0.0    0.0    
0.0    0.0    0.0    0.0    0.0    
0.0    0.0    0.0    0.0    0.0    
0.0    0.0    0.0    0.0    0.0    
0.0    0.0    0.0    0.0    0.0    
0.0    0.0    0.0    0.0    0.0    
0.0    0.0    0.0    0.0    0.0    
0.0    0.0    0.0    0.0    0.0    
0.0    
0.000354893763043    0.00666998769975    0.00696363544756    0.00697314179063    0.00697340278837    
0.00697340276179    0.00697314175718    0.0069636352262    0.00666998836725    0.0003548935562    
0.000679535870096    0.0100117762679    0.0103362759949    0.0103459987354    0.0103462246829    
0.0103462234275    0.010345997479    0.0103362765671    0.0100117689179    0.000679534522728    
4.00302849808e-05    0.0005375934803    0.000551668826493    0.000552055871562    0.000552064153242    
0.000552064115595    0.000552055557956    0.00055166134477    0.000537609877402    4.00300969468e-05    
1.43088557104e-06    1.64966338492e-05    1.68478943852e-05    1.68543754791e-05    1.68570964735e-05    
1.68532828822e-05    1.68553804475e-05    1.68365207904e-05    1.65074857391e-05    1.43048876539e-06    
3.93086047402e-08    3.72616816776e-07    3.81416618516e-07    3.81207847546e-07    3.81396878413e-07    
3.81132296108e-07    3.81127081465e-07    3.7466349855e-07    3.79615752267e-07    3.87655210651e-08    
-3.83486885344e-08    -3.77095285002e-07    -3.79757334518e-07    -3.80069582997e-07    -3.80089030324e-07    
-3.81359654783e-07    -3.81573474064e-07    -3.8667868436e-07    -3.69497830156e-07    -3.87923215903e-08    
-1.42996646191e-06    -1.65042228388e-05    -1.68460399665e-05    -1.68553681628e-05    -1.68555703509e-05    
-1.68556011656e-05    -1.68556020562e-05    -1.68524218861e-05    -1.64963891257e-05    -1.43038671702e-06    
-4.00296888201e-05    -0.00053760668817    -0.000551663547515    -0.000552050757744    -0.00055205910027    
-0.000552060032142    -0.000552051924871    -0.000551669959729    -0.000537586086043    -4.0028876349e-05    
-0.00067953365972    -0.010011767792    -0.0103362746197    -0.0103460003007    -0.0103462237499    
-0.0103462262328    -0.0103459979205    -0.0103362831588    -0.0100117747062    -0.000679535863095    
-0.000354893551535    -0.00666998883501    -0.00696363584467    -0.00697314210415    -0.00697340321965    
-0.00697340310507    -0.00697314226033    -0.00696363678927    -0.00666998785031    -0.000354893766627    

-0.000351829076827    -0.000679239229188    -3.99761388767e-05    -1.42865575532e-06    -3.92588806804e-08    
3.82518215821e-08    1.4276773339e-06    3.9975122163e-05    0.000679236966678    0.000351828895716    
-0.00666979184903    -0.0100119675561    -0.000537597147347    -1.64965236674e-05    -3.69811613651e-07    
3.77331330772e-07    1.6504191514e-05    0.000537609319456    0.0100119582753    0.00666979332114    
-0.00696362544164    -0.0103362818524    -0.000551672963552    -1.68482522997e-05    -3.82722488539e-07    
3.79609707007e-07    1.6844561539e-05    0.000551661068426    0.0103362840971    0.00696362589215    
-0.00697314145631    -0.0103459986675    -0.000552055918766    -1.68542124974e-05    -3.78522631624e-07    
3.80314173361e-07    1.68551620553e-05    0.000552049694514    0.0103460003866    0.00697314220001    
-0.00697340275554    -0.0103462232685    -0.000552066902144    -1.68561817486e-05    -3.81433698093e-07    
3.81212592527e-07    1.68554090813e-05    0.000552058062235    0.0103462241742    0.00697340330552    
-0.00697340275459    -0.0103462232621    -0.000552064119606    -1.68531511051e-05    -3.78409760028e-07    
3.81573248471e-07    1.68555313693e-05    0.000552059962043    0.0103462260598    0.00697340352907    
-0.0069731414252    -0.0103459975064    -0.000552058448067    -1.68557858914e-05    -3.81263644896e-07    
3.81430247169e-07    1.68554044824e-05    0.000552049990745    0.0103459985007    0.0069731420191    
-0.00696362533384    -0.0103362849368    -0.000551664719245    -1.68391452106e-05    -3.73576044678e-07    
3.86742839561e-07    1.68515814027e-05    0.000551669981478    0.0103362884885    0.00696362718561    
-0.00666979237307    -0.0100119628539    -0.000537605801206    -1.65071296826e-05    -3.79408699686e-07    
3.69421680766e-07    1.64966098494e-05    0.0005375887573    0.0100119666237    0.00666979197001    
-0.000351828855955    -0.000679237585141    -3.99756866877e-05    -1.42801232156e-06    -3.86547595107e-08    
3.89390713758e-08    1.42816962471e-06    3.99747327052e-05    0.000679239124247    0.000351829080571    

1.8627492327e-17    3.85949602219e-17    2.43919638941e-17    2.36698818221e-17    1.30934408884e-17    
3.50655303844e-17    2.85311576982e-17    4.68290170285e-17    1.68997184387e-17    3.66384113023e-17    
2.37254037362e-17    4.64621211144e-17    4.0659408643e-17    5.08007582739e-17    3.78311456882e-17    
6.33443302001e-17    3.33213133254e-17    3.11992535823e-17    5.90245563879e-17    1.22422090939e-17    
1.54549123749e-17    3.71045457454e-17    5.83559573703e-17    3.51368179571e-17    4.04787739172e-17    
3.45639745784e-17    3.50606914345e-17    3.48388941621e-17    3.61354515833e-17    1.94594029043e-17    
4.65947160186e-17    1.52484846993e-17    4.375079935e-17    3.44813349607e-17    3.72450999347e-17    
3.60936333871e-17    3.47872483507e-17    3.26115990224e-17    3.33738090099e-17    2.65039875015e-17    
1.91895655369e-17    3.02453887862e-17    3.47281384193e-17    3.20129029965e-17    5.13751264762e-17    
4.4842519492e-17    4.15589827814e-17    5.49927704036e-17    4.23886609474e-17    3.27213052116e-17    
3.04366911476e-17    5.72115085898e-17    4.55686028384e-17    3.49304672948e-17    2.33281911274e-17    
1.91753589654e-17    2.02178731394e-17    3.99461967763e-17    3.0972189049e-17    1.05186001528e-17    
1.38788315615e-17    3.23543294671e-17    1.70311765954e-17    4.1306859586e-17    3.18520507707e-17    
4.3456736095e-17    3.30858474343e-17    2.36075026498e-17    2.60761466805e-17    3.69358013823e-17    
2.59075478524e-17    3.57802557712e-17    5.98396889484e-17    3.12894527434e-17    3.64687519744e-17    
4.38892144394e-17    3.13931491092e-17    2.57687355247e-17    3.77340716632e-17    1.83672010378e-17    
2.03766991952e-17    3.14509208119e-17    3.32050337899e-17    4.32850355629e-17    5.56313003489e-17    
4.96493500948e-17    5.66435802595e-17    2.97022746744e-17    3.78106143071e-17    3.0674935403e-17    
2.44739021257e-17    3.39015744822e-17    3.185651109e-17    2.56686900098e-17    2.52790508007e-17    
2.81388209974e-17    2.38853496203e-17    -7.846195658e-18    1.91885790895e-17    9.57447897547e-18    

0.860983876371    0.782489393541    0.778140429831    0.777994084659    0.777990237552    
0.77799023778    0.77799408501    0.778140433109    0.78248938975    0.860983895518    
0.78249685338    1.0048571112    1.00285014645    1.00252440456    1.00251290629    
1.00251290691    1.00252440554    1.00285014824    1.00485710602    0.782496838431    
0.778140694981    1.00285014689    1.00070099115    1.00036527012    1.00035348531    
1.00035348542    1.00036526987    1.00070099024    1.0028501516    0.778140688299    
0.777994091493    1.00252440458    1.00036526995    1.00002923353    1.00001744243    
1.00001744261    1.00002923427    1.00036526784    1.00252440617    0.777994081185    
0.777990237781    1.0025129068    1.00035348591    1.0000174432    1.00000565171    
1.0000056517    1.00001744309    1.00035348504    1.0025129084    0.77799023047    
0.777990237793    1.00251290695    1.00035348538    1.00001744266    1.00000565104    
1.00000565163    1.00001744304    1.00035348455    1.00251290758    0.77799022721    
0.777994091781    1.00252440555    1.00036527045    1.00002923453    1.00001744303    
1.00001744311    1.00002923428    1.00036526971    1.00252440635    0.777994083893    
0.778140695626    1.00285014957    1.00070099024    1.00036526874    1.0003534839    
1.00035348441    1.00036526896    1.00070098891    1.00285014649    0.778140673556    
0.782496851779    1.00485710707    1.0028501483    1.00252440598    1.00251290861    
1.00251290773    1.00252440655    1.00285014636    1.00485711323    0.782496852014    
0.860983897458    0.782489383612    0.778140424897    0.777994080711    0.777990231748    
0.777990233539    0.777994078374    0.778140415142    0.782489391378    0.860983876261    

1.72065077684    1.54440198391    1.53481027753    1.53448203078    1.53447314955    
1.53447315006    1.53448203156    1.53481028471    1.54440197386    1.72065081589    
1.54441735905    1.06283399437    1.03303227004    1.03192714912    1.03189668655    
1.03189669524    1.03192715914    1.03303229197    1.06283394677    1.54441732444    
1.53481084584    1.0330322724    1.00238015496    1.00125287117    1.00122199245    
1.00122199281    1.00125287047    1.00238013311    1.03303231394    1.53481083127    
1.53448204609    1.03192714931    1.0012528707    1.00012515326    1.00009427779    
1.0000942785    1.00012516891    1.00125284289    1.0319271709    1.53448202347    
1.53447315009    1.03189669497    1.00122200118    1.00009428702    1.00006340406    
1.00006340407    1.0000942867    1.00122198051    1.03189671199    1.53447313392    
1.53447315012    1.0318966954    1.00122199278    1.00009427858    1.00006339529    
1.00006340386    1.00009428649    1.00122197687    1.03189670733    1.53447312688    
1.53448204673    1.03192715927    1.00125287895    1.00012516977    1.00009428634    
1.00009428667    1.00012516894    1.00125285874    1.03192717346    1.53448202925    
1.53481084752    1.03303230044    1.00238013451    1.00125284888    1.00122197013    
1.00122197635    1.0012528543    1.00238011455    1.03303226806    1.53481079795    
1.54441735384    1.06283395302    1.03303229473    1.03192717035    1.03189671336    
1.0318967078    1.03192717489    1.03303226906    1.06283402583    1.54441735568    
1.72065081986    1.54440196011    1.53481026645    1.53448202192    1.53447313667    
1.53447314055    1.5344820168    1.53481024397    1.54440197883    1.72065077661    

3.94276626833e-07    3.9031407639e-07    3.90106533383e-07    3.9009838015e-07    3.9009811382e-07    
3.90098113832e-07    3.90098380167e-07    3.9010653353e-07    3.90314075865e-07    3.9427662698e-07    
3.90314209785e-07    2.35487790296e-07    2.30497881088e-07    2.30358738178e-07    2.30355370032e-07    
2.30355371488e-07    2.30358739809e-07    2.3049788472e-07    2.35487782735e-07    3.90314208739e-07    
3.90106542716e-07    2.30497881433e-07    2.25333450684e-07    2.25189361066e-07    2.25185884489e-07    
2.25185884532e-07    2.25189360984e-07    2.25333446874e-07    2.30497888065e-07    3.9010654243e-07    
3.90098380527e-07    2.30358738209e-07    2.25189361009e-07    2.25045131446e-07    2.25041653216e-07    
2.25041653312e-07    2.25045134163e-07    2.25189356328e-07    2.30358741817e-07    3.90098380054e-07    
3.90098113839e-07    2.30355371461e-07    2.25185885968e-07    2.25041654756e-07    2.25038175139e-07    
2.25038175142e-07    2.25041654719e-07    2.25185882361e-07    2.30355374239e-07    3.90098113477e-07    
3.9009811384e-07    2.30355371511e-07    2.25185884536e-07    2.25041653318e-07    2.25038173662e-07    
2.25038175117e-07    2.25041654691e-07    2.25185881788e-07    2.30355373551e-07    3.90098113352e-07    
3.90098380542e-07    2.30358739831e-07    2.25189362423e-07    2.25045134272e-07    2.25041654664e-07    
2.25041654711e-07    2.25045134166e-07    2.25189358875e-07    2.30358742247e-07    3.90098380146e-07    
3.90106542798e-07    2.30497886001e-07    2.25333447126e-07    2.25189357257e-07    2.25185880678e-07    
2.25185881719e-07    2.25189358203e-07    2.25333443734e-07    2.30497880724e-07    3.90106541556e-07    
3.90314209364e-07    2.35487783658e-07    2.30497885208e-07    2.30358741753e-07    2.30355374448e-07    
2.30355373606e-07    2.30358742467e-07    2.30497880929e-07    2.35487795555e-07    3.90314209647e-07    
3.94276626995e-07    3.90314075531e-07    3.90106533106e-07    3.90098379928e-07    3.90098113525e-07    
3.90098113596e-07    3.90098379823e-07    3.90106532439e-07    3.90314076225e-07    3.94276626831e-07    

1.99847038262    1.97370340947    1.97240783114    1.97235693823    1.97235527579    
1.97235527587    1.97235693834    1.97240783206    1.97370340619    1.99847038354    
1.97370424223    1.05769664416    1.0300963446    1.02932870703    1.02931012666    
1.02931013469    1.02932871603    1.03009636463    1.05769660224    1.9737042357    
1.9724078894    1.0300963465    1.00167798755    1.00088727696    1.00086820025    
1.00086820049    1.00088727651    1.00167796664    1.03009638309    1.97240788761    
1.97235694059    1.0293287072    1.00088727665    1.00009591693    1.00007683402    
1.00007683455    1.00009593184    1.00088725096    1.02932872711    1.97235693764    
1.97235527591    1.02931013454    1.00086820837    1.00007684247    1.00005775203    
1.00005775204    1.00007684227    1.00086818858    1.02931014986    1.97235527365    
1.97235527592    1.02931013481    1.00086820051    1.00007683459    1.00005774392    
1.00005775191    1.00007684211    1.00086818543    1.02931014607    1.97235527287    
1.97235694068    1.02932871615    1.00088728441    1.00009593243    1.00007684197    
1.00007684223    1.00009593185    1.00088726494    1.02932872948    1.97235693821    
1.97240788991    1.0300963717    1.00167796802    1.00088725606    1.00086817934    
1.00086818506    1.00088726125    1.00167794941    1.03009634259    1.97240788216    
1.97370423961    1.05769660736    1.03009636732    1.02932872675    1.02931015101    
1.02931014637    1.02932873069    1.03009634372    1.05769667333    1.97370424137    
1.99847038363    1.9737034041    1.97240782941    1.97235693685    1.97235527395    
1.97235527439    1.9723569362    1.97240782525    1.97370340844    1.99847038261    

1217.26745105    1103.67306467    1097.40208699    1097.19031914    1097.18471792    
1097.18471825    1097.19031964    1097.40209171    1103.67305898    1217.26747822    
1103.68367499    1258.90033497    1250.08993299    1249.50688772    1249.48827133    
1249.48827395    1249.50689101    1250.08993984    1258.900319    1103.68365321    
1097.40246708    1250.08993398    1240.79804186    1240.19567555    1240.17657424    
1240.17657443    1240.19567514    1240.7980358    1250.08994828    1097.40245747    
1097.19032902    1249.50688778    1240.19567528    1239.59277098    1239.57366124    
1239.57366158    1239.59277541    1240.19566661    1249.50689435    1097.19031417    
1097.18471826    1249.48827378    1240.1765769    1239.57366419    1239.55455221    
1239.55455221    1239.573664    1240.17657116    1249.48827931    1097.18470771    
1097.18471828    1249.48827403    1240.17657439    1239.57366165    1239.55454948    
1239.55455209    1239.5736639    1240.17656981    1249.48827741    1097.18470303    
1097.19032944    1249.50689105    1240.19567772    1239.59277587    1239.57366385    
1239.57366401    1239.59277543    1240.19567222    1249.50689512    1097.19031805    
1097.40246805    1250.08994313    1240.79803614    1240.19566892    1240.17656757    
1240.17656955    1240.19567042    1240.79803011    1250.08993257    1097.4024361    
1103.68367245    1258.90032147    1250.08994053    1249.50689403    1249.48827984    
1249.48827767    1249.50689565    1250.08993267    1258.90034412    1103.68367297    
1217.26748098    1103.6730501    1097.40207985    1097.19031342    1097.18470954    
1097.18471212    1097.19031006    1097.40206565    1103.67306151    1217.26745089    

2     4     3     1     4     2     5     6     6     5     7     8     8     7     9     10     10     9     11     12     12     11     13     14     14     13     15     16     16     15     17     18     18     17     19     20     20     19     21     22     3     4     24     23     4     6     25     24     6     8     26     25     8     10     27     26     10     12     28     27     12     14     29     28     14     16     30     29     16     18     31     30     18     20     32     31     20     22     33     32     23     24     35     34     24     25     36     35     25     26     37     36     26     27     38     37     27     28     39     38     28     29     40     39     29     30     41     40     30     31     42     41     31     32     43     42     32     33     44     43     34     35     46     45     35     36     47     46     36     37     48     47     37     38     49     48     38     39     50     49     39     40     51     50     40     41     52     51     41     42     53     52     42     43     54     53     43     44     55     54     45     46     57     56     46     47     58     57     47     48     59     58     48     49     60     59     49     50     61     60     50     51     62     61     51     52     63     62     52     53     64     63     53     54     65     64     54     55     66     65     56     57     68     67     57     58     69     68     58     59     70     69     59     60     71     70     60     61     72     71     61     62     73     72     62     63     74     73     63     64     75     74     64     65     76     75     65     66     77     76     67     68     79     78     68     69     80     79     69     70     81     80     70     71     82     81     71     72     83     82     72     73     84     83     73     74     85     84     74     75     86     85     75     76     87     86     76     77     88     87     78     79     90     89     79     80     91     90     80     81     92     91     81     82     93     92     82     83     94     93     83     84     95     94     84     85     96     95     85     86     97     96     86     87     98     97     87     88     99     98     89     90     101     100     90     91     102     101     91     92     103     102     92     93     104     103     93     94     105     104     94     95     106     105     95     96     107     106     96     97     108     107     97     98     109     108     98     99     110     109     100     101     111     112     101     102     113     111     102     103     114     113     103     104     115     114     104     105     116     115     105     106     117     116     106     107     118     117     107     108     119     118     108     109     120     119     109     110     121     120     

