Title = " tecplot out file" 
variables = "x", "y", "z", "velX", "velY", "velZ","density","pressure","viscosity","temperature", "collisionFrequency",
Zone T = "nmesh0" N = 121 E = 100 DATAPACKING = BLOCK, VARLOCATION = ([4-11]=CELLCENTERED),  ZONETYPE=FEQUADRILATERAL 
0.0    
0.0    
0.1    
0.1    
0.0    

0.1    
0.0    
0.1    
0.0    
0.1    

0.0    
0.1    
0.0    
0.1    
0.0    

0.1    
0.0    
0.1    
0.0    
0.1    

0.0    
0.1    
0.2    
0.2    
0.2    

0.2    
0.2    
0.2    
0.2    
0.2    

0.2    
0.2    
0.2    
0.3    
0.3    

0.3    
0.3    
0.3    
0.3    
0.3    

0.3    
0.3    
0.3    
0.3    
0.4    

0.4    
0.4    
0.4    
0.4    
0.4    

0.4    
0.4    
0.4    
0.4    
0.4    

0.5    
0.5    
0.5    
0.5    
0.5    

0.5    
0.5    
0.5    
0.5    
0.5    

0.5    
0.6    
0.6    
0.6    
0.6    

0.6    
0.6    
0.6    
0.6    
0.6    

0.6    
0.6    
0.7    
0.7    
0.7    

0.7    
0.7    
0.7    
0.7    
0.7    

0.7    
0.7    
0.7    
0.8    
0.8    

0.8    
0.8    
0.8    
0.8    
0.8    

0.8    
0.8    
0.8    
0.8    
0.9    

0.9    
0.9    
0.9    
0.9    
0.9    

0.9    
0.9    
0.9    
0.9    
0.9    

1.0    
1.0    
1.0    
1.0    
1.0    

1.0    
1.0    
1.0    
1.0    
1.0    

1.0    
1.0    
0.9    
1.0    
0.9    
0.8    

0.8    
0.7    
0.7    
0.6    
0.6    

0.5    
0.5    
0.4    
0.4    
0.3    

0.3    
0.2    
0.2    
0.1    
0.1    

0.0    
0.0    
1.0    
0.9    
0.8    

0.7    
0.6    
0.5    
0.4    
0.3    

0.2    
0.1    
0.0    
1.0    
0.9    

0.8    
0.7    
0.6    
0.5    
0.4    

0.3    
0.2    
0.1    
0.0    
1.0    

0.9    
0.8    
0.7    
0.6    
0.5    

0.4    
0.3    
0.2    
0.1    
0.0    

1.0    
0.9    
0.8    
0.7    
0.6    

0.5    
0.4    
0.3    
0.2    
0.1    

0.0    
1.0    
0.9    
0.8    
0.7    

0.6    
0.5    
0.4    
0.3    
0.2    

0.1    
0.0    
1.0    
0.9    
0.8    

0.7    
0.6    
0.5    
0.4    
0.3    

0.2    
0.1    
0.0    
1.0    
0.9    

0.8    
0.7    
0.6    
0.5    
0.4    

0.3    
0.2    
0.1    
0.0    
1.0    

0.9    
0.8    
0.7    
0.6    
0.5    

0.4    
0.3    
0.2    
0.1    
0.0    

0.9    
1.0    
0.8    
0.7    
0.6    

0.5    
0.4    
0.3    
0.2    
0.1    

0.0    
0.0    0.0    0.0    0.0    0.0    
0.0    0.0    0.0    0.0    0.0    
0.0    0.0    0.0    0.0    0.0    
0.0    0.0    0.0    0.0    0.0    
0.0    0.0    0.0    0.0    0.0    
0.0    0.0    0.0    0.0    0.0    
0.0    0.0    0.0    0.0    0.0    
0.0    0.0    0.0    0.0    0.0    
0.0    0.0    0.0    0.0    0.0    
0.0    0.0    0.0    0.0    0.0    
0.0    0.0    0.0    0.0    0.0    
0.0    0.0    0.0    0.0    0.0    
0.0    0.0    0.0    0.0    0.0    
0.0    0.0    0.0    0.0    0.0    
0.0    0.0    0.0    0.0    0.0    
0.0    0.0    0.0    0.0    0.0    
0.0    0.0    0.0    0.0    0.0    
0.0    0.0    0.0    0.0    0.0    
0.0    0.0    0.0    0.0    0.0    
0.0    0.0    0.0    0.0    0.0    
0.0    0.0    0.0    0.0    0.0    
0.0    0.0    0.0    0.0    0.0    
0.0    0.0    0.0    0.0    0.0    
0.0    0.0    0.0    0.0    0.0    
0.0    
0.000158914762746    0.00390806722673    0.0041405977939    0.00415027042995    0.00415060739832    
0.00415060736975    0.00415027039314    0.00414059763558    0.00390806774058    0.000158914758414    
0.000652591231028    0.0126218480328    0.0131713070496    0.0131926040883    0.0131932346689    
0.0131932333619    0.0131926027549    0.0131713071134    0.0126218413099    0.000652590544133    
4.76910807766e-05    0.000900433795336    0.000931596660197    0.000932680547572    0.000932709336158    
0.00093270928595    0.000932680129305    0.000931588958227    0.000900450368476    4.76914383347e-05    
2.08176556184e-06    3.56748971351e-05    3.66302036507e-05    3.66582972015e-05    3.66616512973e-05    
3.66577226359e-05    3.66592175589e-05    3.66181128013e-05    3.56865646196e-05    2.08174015893e-06    
6.82929768705e-08    1.02210641562e-06    1.0452804757e-06    1.04542509137e-06    1.04569092397e-06    
1.0453270996e-06    1.04531672985e-06    1.03799438131e-06    1.02973792157e-06    6.81742649191e-08    
-6.80286957109e-08    -1.02701133694e-06    -1.04346163596e-06    -1.04426866337e-06    -1.04430595056e-06    
-1.04563621834e-06    -1.04589796155e-06    -1.05087619505e-06    -1.01888297581e-06    -6.81187533752e-08    
-2.08155617713e-06    -3.56831415902e-05    -3.66281105244e-05    -3.66591595664e-05    -3.66599493218e-05    
-3.66599936421e-05    -3.66594716131e-05    -3.66348691589e-05    -3.56743857679e-05    -2.08155379642e-06    
-4.76913016277e-05    -0.000900446615506    -0.000931591071514    -0.000932675141009    -0.000932704021342    
-0.000932705045658    -0.00093267647434    -0.000931597957593    -0.000900426084997    -4.76904891448e-05    
-0.000652590227315    -0.0126218400303    -0.0131713056811    -0.0131926057277    -0.013193233884    
-0.0131932362819    -0.0131926034399    -0.0131713145527    -0.0126218463756    -0.000652591478598    
-0.000158914744367    -0.00390806793299    -0.00414059790027    -0.00415027052762    -0.0041506075369    
-0.00415060749933    -0.00415027059693    -0.00414059854213    -0.00390806719428    -0.000158914765574    

-0.000158972235472    -0.00065252249678    -4.76439312883e-05    -2.07917186798e-06    -6.82114776891e-08    
6.79043039125e-08    2.07890137185e-06    4.76437771597e-05    0.000652521494456    0.000158972223766    
-0.00390797943086    -0.0126221154304    -0.000900440776135    -3.56748257751e-05    -1.01917087937e-06    
1.02732951866e-06    3.56831290201e-05    0.000900452491785    0.0126221066299    0.00390798028743    
-0.00414059060255    -0.0131713178267    -0.000931601148318    -3.66306939784e-05    -1.04664122235e-06    
1.04326796528e-06    3.66265119064e-05    0.000931588933003    0.0131713200105    0.00414059068443    
-0.00415027008865    -0.0131926041386    -0.000932680623668    -3.6658106991e-05    -1.04263191351e-06    
1.04459865616e-06    3.66588828571e-05    0.000932674041996    0.0131926059346    0.00415027037261    
-0.0041506073592    -0.0131932331612    -0.000932712189269    -3.66607943207e-05    -1.04571190376e-06    
1.04545520735e-06    3.66597557717e-05    0.000932703095902    0.0131932342066    0.00415060757422    
-0.00415060735795    -0.0131932331606    -0.000932709304145    -3.66575742458e-05    -1.042489443e-06    
1.04592541154e-06    3.66599078623e-05    0.000932704941235    0.0131932360264    0.00415060767601    
-0.0041502700533    -0.0131926029238    -0.000932683188624    -3.66597588775e-05    -1.04548001462e-06    
1.04572232201e-06    3.66592254031e-05    0.000932674573906    0.0131926040955    0.00415027030423    
-0.0041405904608    -0.0131713204478    -0.000931592553256    -3.66208630482e-05    -1.03674092872e-06    
1.05096617677e-06    3.66340437164e-05    0.000931598110545    0.0131713247188    0.00414059148276    
-0.00390797987437    -0.0126221114546    -0.000900449706503    -3.56861307837e-05    -1.02954487824e-06    
1.01878257571e-06    3.56746354675e-05    0.000900432064303    0.0126221144207    0.00390797939252    
-0.000158972221088    -0.000652521755704    -4.76439320296e-05    -2.07902974158e-06    -6.80604871467e-08    
6.80987912504e-08    2.07894022089e-06    4.76430901017e-05    0.000652522732736    0.000158972238504    

1.96622112403e-17    2.22006516813e-17    4.53596903105e-17    2.83318382324e-17    2.3712004594e-17    
3.18058131282e-17    1.8985351923e-17    4.67499523359e-17    1.98437142029e-17    3.89847927323e-17    
5.94243973148e-18    3.48149520109e-17    4.7928601572e-17    5.23176509521e-17    5.6680951002e-17    
4.98016629823e-17    3.84826058434e-17    3.8007260251e-17    3.71527277314e-17    1.33358918476e-17    
3.37959209277e-17    3.95862574087e-17    4.1410936631e-17    3.07286106196e-17    5.83834254648e-17    
4.57968893903e-17    3.75281706227e-17    3.09534905169e-17    6.13400978335e-17    2.61085184256e-17    
5.27775514775e-18    2.64919568428e-17    4.58038097735e-17    3.13442602918e-17    5.78113703654e-17    
3.11018365478e-17    3.44395723579e-17    1.42219179414e-17    3.76100735498e-17    2.50682214048e-17    
9.04006504604e-18    3.92187667735e-17    2.99856010677e-17    4.61577188864e-17    4.78962955637e-17    
3.53424165362e-17    3.38832162816e-17    4.15115146019e-17    3.1178603548e-17    3.17093703705e-17    
2.24303842063e-17    2.62255086099e-17    1.85564912675e-17    3.75581118419e-17    1.73096058518e-17    
4.91823224093e-17    3.00336029292e-17    2.45747685182e-17    1.67711793711e-17    1.87697353536e-17    
2.42237963619e-17    2.87837269585e-17    3.52323536833e-17    4.0774480058e-17    1.91612327622e-17    
3.60353787594e-17    3.07573564229e-17    4.78229589205e-17    4.01880864568e-17    3.00623057645e-17    
1.36485735453e-17    3.50533014328e-17    5.17926354095e-17    2.44046929111e-17    3.40316707556e-17    
4.13118367992e-17    2.97132607224e-17    5.38848769654e-17    2.86293271314e-17    4.44466412127e-17    
2.82938751593e-17    4.32105687603e-17    3.48686776674e-17    4.08118325274e-17    4.81299873504e-17    
2.32419663513e-17    2.42832702425e-17    2.91210984837e-17    2.26154782825e-17    3.04359079192e-17    
1.43092879428e-17    4.20180034873e-17    1.65577320343e-17    1.3978011702e-17    2.32670150134e-17    
-3.40000106192e-18    1.18471812514e-17    2.29174471017e-17    3.79727774023e-17    3.24018044496e-17    

0.856686373696    0.774277320853    0.76875420821    0.768528141454    0.768520929838    
0.768520930186    0.768528142011    0.76875421193    0.774277316044    0.856686391946    
0.774284572812    1.00510553257    1.00326858474    1.00272222561    1.00269670688    
1.00269670748    1.00272222668    1.0032685859    1.0051055278    0.774284556474    
0.768754543859    1.00326858514    1.0012017594    1.0006321501    1.00060576372    
1.00060576388    1.00063214975    1.00120175874    1.00326858939    0.768754537698    
0.768528152347    1.00272222564    1.0006321499    1.00006159641    1.00003518561    
1.00003518585    1.0000615969    1.00063214786    1.00272222733    0.76852814187    
0.7685209303    1.00269670733    1.0006057643    1.00003518641    1.00000877503    
1.00000877502    1.00003518625    1.00060576338    1.00269670896    0.768520922733    
0.768520930324    1.00269670755    1.00060576386    1.00003518594    1.00000877439    
1.00000877493    1.00003518619    1.00060576305    1.00269670815    0.768520919401    
0.76852815282    1.00272222672    1.00063215031    1.00006159725    1.00003518616    
1.00003518627    1.0000615969    1.00063214956    1.00272222722    0.768528144444    
0.768754545305    1.00326858717    1.00120175872    1.00063214873    1.0006057623    
1.00060576285    1.00063214886    1.0012017573    1.00326858464    0.768754521368    
0.77428457014    1.00510552891    1.00326858624    1.00272222706    1.00269670913    
1.00269670837    1.00272222737    1.00326858455    1.00510553461    0.774284571773    
0.856686394021    0.774277309782    0.7687542035    0.768528137449    0.768520924036    
0.76852092573    0.768528135012    0.768754192145    0.774277319193    0.856686373506    

1.7128306902    1.53696634929    1.52523977414    1.52475295805    1.52473708627    
1.52473708702    1.52475295925    1.52523978198    1.53696633795    1.71283072678    
1.53698102487    1.08102438419    1.04322260474    1.04140418871    1.04133978971    
1.04133979871    1.04140419941    1.04322262486    1.08102433786    1.53698098952    
1.52524047326    1.04322260862    1.00395195047    1.00208499357    1.00201949948    
1.00201949999    1.00208499271    1.00395192834    1.04322264964    1.52524046081    
1.52475298152    1.04140418906    1.00208499306    1.00021694128    1.00015144696    
1.00015144791    1.00021695689    1.00208496443    1.04140421158    1.52475295979    
1.5247370873    1.04133979838    1.00201950858    1.00015145662    1.00008595554    
1.00008595561    1.00015145622    1.00201948682    1.04133981583    1.52473707155    
1.52473708736    1.04133979896    1.00201950008    1.00015144805    1.00008594656    
1.00008595536    1.00015145598    1.00201948359    1.04133981122    1.52473706466    
1.52475298254    1.04140419974    1.00208500145    1.00021695801    1.00015145569    
1.00015145618    1.00021695694    1.00208498026    1.04140421342    1.52475296504    
1.52524047668    1.0432226349    1.0039519298    1.0020849704    1.00201947624    
1.00201948288    1.00208497594    1.00395190877    1.04322260394    1.52524042584    
1.536981018    1.08102434426    1.0432226291    1.04140421083    1.0413398171    
1.04133981188    1.04140421472    1.04322260353    1.08102441649    1.53698102273    
1.71283073096    1.53696632484    1.52523976435    1.52475294971    1.52473707422    
1.52473707772    1.52475294462    1.52523973973    1.53696634591    1.71283068981    

3.94419946019e-07    3.92127965964e-07    3.91969144379e-07    3.91961171458e-07    3.91960845794e-07    
3.91960845807e-07    3.91961171476e-07    3.91969144473e-07    3.92127965595e-07    3.94419946035e-07    
3.9212802387e-07    2.38699319953e-07    2.32259400216e-07    2.32033778343e-07    2.32026938896e-07    
2.32026940406e-07    2.32033780071e-07    2.32259403627e-07    2.38699312584e-07    3.92128023266e-07    
3.91969151286e-07    2.32259400841e-07    2.25528200298e-07    2.25292258077e-07    2.25285143052e-07    
2.25285143116e-07    2.25292257985e-07    2.25528196393e-07    2.3225940744e-07    3.91969151238e-07    
3.91961171843e-07    2.320337784e-07    2.2529225802e-07    2.25055961516e-07    2.25048838852e-07    
2.25048838983e-07    2.25055964272e-07    2.2529225318e-07    2.32033782148e-07    3.91961171647e-07    
3.91960845818e-07    2.32026940377e-07    2.25285144602e-07    2.25048840465e-07    2.25041716246e-07    
2.2504171626e-07    2.25048840423e-07    2.25285140809e-07    2.32026943219e-07    3.91960845663e-07    
3.91960845819e-07    2.32026940439e-07    2.25285143136e-07    2.25048838991e-07    2.25041714726e-07    
2.25041716232e-07    2.2504884039e-07    2.2528514028e-07    2.32026942539e-07    3.91960845606e-07    
3.9196117186e-07    2.32033780124e-07    2.25292259475e-07    2.25055964412e-07    2.25048840343e-07    
2.25048840413e-07    2.25055964281e-07    2.25292255752e-07    2.32033782499e-07    3.91961171678e-07    
3.919691514e-07    2.32259405199e-07    2.25528196661e-07    2.25292254107e-07    2.25285139079e-07    
2.25285140186e-07    2.25292255093e-07    2.25528193094e-07    2.3225940009e-07    3.91969150703e-07    
3.92128023546e-07    2.38699313514e-07    2.32259404327e-07    2.32033782062e-07    2.32026943418e-07    
2.32026942617e-07    2.32033782706e-07    2.32259400034e-07    2.38699325338e-07    3.92128023854e-07    
3.94419946042e-07    3.92127965455e-07    3.91969144287e-07    3.91961171376e-07    3.91960845681e-07    
3.91960845709e-07    3.91961171322e-07    3.91969143851e-07    3.92127965947e-07    3.94419946017e-07    

1.99936726297    1.98503340843    1.9840408779    1.98399105486    1.98398901978    
1.98398901986    1.98399105498    1.98404087848    1.98503340613    1.99936726308    
1.98503377032    1.07553321434    1.03982385236    1.03857694795    1.03853915403    
1.03853916238    1.0385769575    1.03982387122    1.07553317335    1.98503376655    
1.98404092105    1.03982385582    1.00274688997    1.00145192563    1.0014128799    
1.00141288024    1.00145192513    1.00274686853    1.03982389229    1.98404092076    
1.98399105727    1.03857694827    1.00145192532    1.0001553353    1.00011625726    
1.00011625798    1.00015535042    1.00145189876    1.03857696898    1.98399105605    
1.98398901993    1.03853916221    1.0014128884    1.00011626611    1.00007717983    
1.00007717991    1.00011626588    1.00141286758    1.03853917792    1.98398901896    
1.98398901994    1.03853916256    1.00141288036    1.00011625802    1.00007717149    
1.00007717975    1.0001162657    1.00141286468    1.03853917416    1.98398901861    
1.98399105738    1.03857695779    1.0014519333    1.00015535119    1.00011626544    
1.00011626582    1.00015535047    1.00145191287    1.03857697092    1.98399105624    
1.98404092177    1.0398238799    1.00274687001    1.00145190384    1.00141285809    
1.00141286416    1.00145190925    1.00274685043    1.03982385167    1.98404091742    
1.9850337683    1.07553317852    1.03982387509    1.0385769685    1.03853917902    
1.03853917459    1.03857697206    1.03982385136    1.07553324429    1.98503377023    
1.99936726311    1.98503340525    1.98404087732    1.98399105435    1.98398901908    
1.98398901925    1.98399105401    1.98404087459    1.98503340833    1.99936726296    

1211.29485775    1093.27860524    1085.37683419    1085.0524814    1085.04208816    
1085.04208866    1085.0524822    1085.37683951    1093.2785982    1211.29488357    
1093.28888286    1263.21890162    1252.84687935    1251.87917521    1251.83866003    
1251.83866269    1251.87917875    1252.84688512    1263.21888647    1093.2888594    
1085.37731257    1252.84688064    1241.67054939    1240.65947747    1240.617571    
1240.61757129    1240.65947691    1241.67054353    1252.8468943    1085.37730384    
1085.05249703    1251.87917533    1240.65947715    1239.64687975    1239.60493905    
1239.60493952    1239.64688391    1240.65946836    1251.87918218    1085.05248211    
1085.04208883    1251.83866247    1240.61757373    1239.60494214    1239.56299899    
1239.56299899    1239.60494188    1240.61756768    1251.8386681    1085.04207804    
1085.04208886    1251.83866282    1240.61757128    1239.60493965    1239.56299623    
1239.56299884    1239.60494176    1240.6175666    1251.83866623    1085.0420733    
1085.05249771    1251.87917886    1240.65947953    1239.64688453    1239.60494166    
1239.60494189    1239.64688392    1240.65947379    1251.87918249    1085.05248577    
1085.37731469    1252.8468887    1241.67054386    1240.65947064    1240.61756411    
1240.61756622    1240.65947207    1241.67053749    1252.84687908    1085.37728044    
1093.28887888    1263.21888903    1252.84688643    1251.87918173    1251.83866856    
1251.8386666    1251.87918293    1252.84687889    1263.21891087    1093.28888139    
1211.29488651    1093.27858927    1085.37682748    1085.05247569    1085.04207989    
1085.0420823    1085.05247222    1085.37681117    1093.27860288    1211.29485748    

2     4     3     1     4     2     5     6     6     5     7     8     8     7     9     10     10     9     11     12     12     11     13     14     14     13     15     16     16     15     17     18     18     17     19     20     20     19     21     22     3     4     24     23     4     6     25     24     6     8     26     25     8     10     27     26     10     12     28     27     12     14     29     28     14     16     30     29     16     18     31     30     18     20     32     31     20     22     33     32     23     24     35     34     24     25     36     35     25     26     37     36     26     27     38     37     27     28     39     38     28     29     40     39     29     30     41     40     30     31     42     41     31     32     43     42     32     33     44     43     34     35     46     45     35     36     47     46     36     37     48     47     37     38     49     48     38     39     50     49     39     40     51     50     40     41     52     51     41     42     53     52     42     43     54     53     43     44     55     54     45     46     57     56     46     47     58     57     47     48     59     58     48     49     60     59     49     50     61     60     50     51     62     61     51     52     63     62     52     53     64     63     53     54     65     64     54     55     66     65     56     57     68     67     57     58     69     68     58     59     70     69     59     60     71     70     60     61     72     71     61     62     73     72     62     63     74     73     63     64     75     74     64     65     76     75     65     66     77     76     67     68     79     78     68     69     80     79     69     70     81     80     70     71     82     81     71     72     83     82     72     73     84     83     73     74     85     84     74     75     86     85     75     76     87     86     76     77     88     87     78     79     90     89     79     80     91     90     80     81     92     91     81     82     93     92     82     83     94     93     83     84     95     94     84     85     96     95     85     86     97     96     86     87     98     97     87     88     99     98     89     90     101     100     90     91     102     101     91     92     103     102     92     93     104     103     93     94     105     104     94     95     106     105     95     96     107     106     96     97     108     107     97     98     109     108     98     99     110     109     100     101     111     112     101     102     113     111     102     103     114     113     103     104     115     114     104     105     116     115     105     106     117     116     106     107     118     117     107     108     119     118     108     109     120     119     109     110     121     120     

