Title = " tecplot out file" 
variables = "x", "y", "z", "velX", "velY", "velZ","density","pressure","viscosity","temperature", "collisionFrequency",
Zone T = "nmesh0" N = 121 E = 100 DATAPACKING = BLOCK, VARLOCATION = ([4-11]=CELLCENTERED),  ZONETYPE=FEQUADRILATERAL 
0.0    
0.0    
0.1    
0.1    
0.0    

0.1    
0.0    
0.1    
0.0    
0.1    

0.0    
0.1    
0.0    
0.1    
0.0    

0.1    
0.0    
0.1    
0.0    
0.1    

0.0    
0.1    
0.2    
0.2    
0.2    

0.2    
0.2    
0.2    
0.2    
0.2    

0.2    
0.2    
0.2    
0.3    
0.3    

0.3    
0.3    
0.3    
0.3    
0.3    

0.3    
0.3    
0.3    
0.3    
0.4    

0.4    
0.4    
0.4    
0.4    
0.4    

0.4    
0.4    
0.4    
0.4    
0.4    

0.5    
0.5    
0.5    
0.5    
0.5    

0.5    
0.5    
0.5    
0.5    
0.5    

0.5    
0.6    
0.6    
0.6    
0.6    

0.6    
0.6    
0.6    
0.6    
0.6    

0.6    
0.6    
0.7    
0.7    
0.7    

0.7    
0.7    
0.7    
0.7    
0.7    

0.7    
0.7    
0.7    
0.8    
0.8    

0.8    
0.8    
0.8    
0.8    
0.8    

0.8    
0.8    
0.8    
0.8    
0.9    

0.9    
0.9    
0.9    
0.9    
0.9    

0.9    
0.9    
0.9    
0.9    
0.9    

1.0    
1.0    
1.0    
1.0    
1.0    

1.0    
1.0    
1.0    
1.0    
1.0    

1.0    
1.0    
0.9    
1.0    
0.9    
0.8    

0.8    
0.7    
0.7    
0.6    
0.6    

0.5    
0.5    
0.4    
0.4    
0.3    

0.3    
0.2    
0.2    
0.1    
0.1    

0.0    
0.0    
1.0    
0.9    
0.8    

0.7    
0.6    
0.5    
0.4    
0.3    

0.2    
0.1    
0.0    
1.0    
0.9    

0.8    
0.7    
0.6    
0.5    
0.4    

0.3    
0.2    
0.1    
0.0    
1.0    

0.9    
0.8    
0.7    
0.6    
0.5    

0.4    
0.3    
0.2    
0.1    
0.0    

1.0    
0.9    
0.8    
0.7    
0.6    

0.5    
0.4    
0.3    
0.2    
0.1    

0.0    
1.0    
0.9    
0.8    
0.7    

0.6    
0.5    
0.4    
0.3    
0.2    

0.1    
0.0    
1.0    
0.9    
0.8    

0.7    
0.6    
0.5    
0.4    
0.3    

0.2    
0.1    
0.0    
1.0    
0.9    

0.8    
0.7    
0.6    
0.5    
0.4    

0.3    
0.2    
0.1    
0.0    
1.0    

0.9    
0.8    
0.7    
0.6    
0.5    

0.4    
0.3    
0.2    
0.1    
0.0    

0.9    
1.0    
0.8    
0.7    
0.6    

0.5    
0.4    
0.3    
0.2    
0.1    

0.0    
0.0    0.0    0.0    0.0    0.0    
0.0    0.0    0.0    0.0    0.0    
0.0    0.0    0.0    0.0    0.0    
0.0    0.0    0.0    0.0    0.0    
0.0    0.0    0.0    0.0    0.0    
0.0    0.0    0.0    0.0    0.0    
0.0    0.0    0.0    0.0    0.0    
0.0    0.0    0.0    0.0    0.0    
0.0    0.0    0.0    0.0    0.0    
0.0    0.0    0.0    0.0    0.0    
0.0    0.0    0.0    0.0    0.0    
0.0    0.0    0.0    0.0    0.0    
0.0    0.0    0.0    0.0    0.0    
0.0    0.0    0.0    0.0    0.0    
0.0    0.0    0.0    0.0    0.0    
0.0    0.0    0.0    0.0    0.0    
0.0    0.0    0.0    0.0    0.0    
0.0    0.0    0.0    0.0    0.0    
0.0    0.0    0.0    0.0    0.0    
0.0    0.0    0.0    0.0    0.0    
0.0    0.0    0.0    0.0    0.0    
0.0    0.0    0.0    0.0    0.0    
0.0    0.0    0.0    0.0    0.0    
0.0    0.0    0.0    0.0    0.0    
0.0    
0.00116730313578    0.0130208457306    0.0134075621892    0.0134167964581    0.0134169862137    
0.0134169861908    0.0134167964299    0.0134075619    0.0130208465471    0.00116730252945    
0.000753008970668    0.00772132962911    0.0079017387687    0.00790585791624    0.00790593234638    
0.0079059311654    0.00790585674856    0.00790173969607    0.00772132204864    0.000753006598007    
3.39850454103e-05    0.000303966940734    0.000309856722999    0.000309983650634    0.000309985821652    
0.000309985794376    0.000309983423839    0.000309849624823    0.000303982735379    3.3984031545e-05    
9.51777204011e-07    7.09763999573e-06    7.21905476338e-06    7.21900007259e-06    7.22146239864e-06    
7.21784261259e-06    7.22003676485e-06    7.20854809399e-06    7.10756339264e-06    9.50854595714e-07    
2.14533417387e-08    1.23908024252e-07    1.27925423227e-07    1.27681607873e-07    1.27812021468e-07    
1.27629782054e-07    1.27619148984e-07    1.21775491525e-07    1.30248364265e-07    2.02961047093e-08    
-1.9489002349e-08    -1.27952830173e-07    -1.26429140517e-07    -1.26587276551e-07    -1.26598624415e-07    
-1.27789713085e-07    -1.27956251686e-07    -1.32784639377e-07    -1.20965080401e-07    -2.04435043832e-08    
-9.49841447259e-07    -7.10451630072e-06    -7.21742710642e-06    -7.22005627923e-06    -7.22010627945e-06    
-7.2201274953e-06    -7.22022853593e-06    -7.2233290737e-06    -7.09759649059e-06    -9.5087581369e-07    
-3.39832308367e-05    -0.000303980043226    -0.000309851819247    -0.000309978907125    -0.000309981116073    
-0.000309981953924    -0.000309979920767    -0.00030985770599    -0.000303960014465    -3.39823478587e-05    
-0.000753004934478    -0.00772132107285    -0.00790173746613    -0.00790585937061    -0.00790593136138    
-0.0079059337934    -0.00790585703125    -0.00790174543534    -0.00772132822421    -0.000753008595477    
-0.00116730255041    -0.0130208473676    -0.0134075629777    -0.0134167970548    -0.0134169870391    
-0.0134169868134    -0.0134167973303    -0.0134075643437    -0.013020846059    -0.00116730313895    

-0.00115097883048    -0.00075221692029    -3.39251918847e-05    -9.50031999522e-07    -2.14321367469e-08    
1.94159496233e-08    9.48035881113e-07    3.39229102546e-05    0.000752212733248    0.00115097832091    
-0.0130204804482    -0.00772145677746    -0.000303968670462    -7.09752538992e-06    -1.21278648772e-07    
1.28121516169e-07    7.10449339221e-06    0.000303980820286    0.00772144743377    0.0130204826901    
-0.0134075502015    -0.00790174162059    -0.000309860539408    -7.21930684581e-06    -1.2915507223e-07    
1.26320002069e-07    7.21608163112e-06    0.000309849246532    0.00790174386938    0.013407551134    
-0.0134167961835    -0.00790585780985    -0.000309983676952    -7.21886322386e-06    -1.25151973092e-07    
1.26761365136e-07    7.21990930864e-06    0.000309977907328    0.0079058594092    0.0134167975477    
-0.01341698619    -0.0079059310426    -0.000309988414933    -7.22053127379e-06    -1.27860484433e-07    
1.27672167247e-07    7.21997361703e-06    0.000309980055845    0.00790593184034    0.013416987187    
-0.0134169861893    -0.00790593103209    -0.00030998578781    -7.21772833683e-06    -1.25069803489e-07    
1.27941163719e-07    7.22007232481e-06    0.000309981911052    0.00790593368623    0.01341698758    
-0.0134167961574    -0.00790585671722    -0.00030998610978    -7.22033138887e-06    -1.27733504887e-07    
1.27841519666e-07    7.22007195438e-06    0.000309978049727    0.00790585757653    0.0134167972051    
-0.0134075501307    -0.00790174495115    -0.000309852780799    -7.2109989241e-06    -1.2082739429e-07    
1.32829931231e-07    7.22251608825e-06    0.000309857685773    0.00790174785266    0.013407553122    
-0.0130204810307    -0.00772145169007    -0.000303976901192    -7.10730083469e-06    -1.30036613579e-07    
1.20910666208e-07    7.09780781669e-06    0.000303960821673    0.00772145595121    0.013020480715    
-0.00115097820547    -0.000752213867627    -3.39240771e-05    -9.48665112806e-07    -2.01747140086e-08    
2.08187863789e-08    9.49183933391e-07    3.3922893729e-05    0.000752216293777    0.00115097883372    

1.85277357014e-17    2.45639839356e-17    3.8669420537e-17    1.51224914608e-17    2.63055884119e-17    
2.18765023575e-17    2.90672438753e-17    4.2879864429e-17    4.50225836809e-17    4.56933500987e-17    
1.25414800127e-17    3.55658625132e-17    3.7347185269e-17    2.69652375247e-17    3.38062638202e-17    
4.32853171486e-17    2.15271663902e-17    4.03849661203e-17    4.07427552665e-17    2.39583562587e-17    
2.29309368809e-17    3.15698563801e-17    3.28093727643e-17    4.1498345527e-17    2.55450332962e-17    
4.67552509188e-17    4.9258043823e-17    2.83023367367e-17    4.34262063129e-17    1.07747605459e-17    
7.49146110286e-18    4.654071605e-17    1.88260681673e-17    4.45409607339e-17    4.5907596546e-17    
5.72507170318e-17    5.43283226262e-17    2.88875382177e-17    4.01314205204e-17    2.73729790143e-17    
6.34543261899e-19    2.84765729963e-17    4.86999157543e-17    3.89017852544e-17    5.0529496325e-17    
4.43782109303e-17    3.89735620084e-17    4.17266073532e-17    4.10712624644e-17    2.18487498447e-17    
1.31536457515e-17    3.21537115218e-17    6.3757974963e-17    4.9568670979e-17    3.07106977929e-17    
3.77661484945e-17    3.35106184454e-17    5.97165667106e-17    4.1375753397e-17    2.48552624152e-17    
9.30316618494e-18    3.68518854804e-17    1.88456315121e-17    3.28074836814e-17    4.07503231974e-17    
1.89301830557e-17    4.76079405769e-17    3.36529428735e-17    4.48712055856e-17    1.87025584342e-17    
2.35811262916e-17    2.92495202244e-17    4.09289671509e-17    4.38726166323e-17    2.48294942367e-17    
3.40397608904e-17    3.87861469653e-17    4.2865478937e-17    3.50720522693e-17    3.47027957417e-17    
2.27643280259e-17    3.87112800262e-17    4.11601784855e-17    4.59267056405e-17    5.10447652536e-17    
3.41573612576e-17    1.40400926352e-17    3.20480416634e-17    3.19066612439e-17    3.103238995e-17    
4.75088333286e-17    2.2961188447e-17    2.6461691032e-17    1.48220103622e-17    3.16897785281e-17    
3.63679201464e-17    3.40492694043e-17    2.05813444257e-17    4.16029962481e-17    3.47012656608e-17    

0.865801082497    0.795333761634    0.791999259514    0.791907952262    0.79190601949    
0.791906019628    0.791907952466    0.791999262279    0.79533375887    0.865801100945    
0.795341217276    1.00437493553    1.00241990612    1.00223806254    1.00223331481    
1.00223331543    1.00223806341    1.00241990835    1.00437493015    0.795341204556    
0.79199945684    1.00241990645    1.00038479625    1.00019909698    1.00019426509    
1.00019426516    1.00019909682    1.00038479516    1.00241991134    0.791999450373    
0.79190795615    1.00223806255    1.00019909686    1.00001330318    1.00000847014    
1.00000847027    1.00001330409    1.00019909477    1.00223806401    0.791907946835    
0.791906019575    1.00223331534    1.00019426569    1.00000847087    1.00000363742    
1.00000363741    1.0000084708    1.00019426488    1.00223331687    0.791906013073    
0.79190601958    1.00223331544    1.00019426511    1.00000847029    1.00000363675    
1.00000363735    1.00000847076    1.00019426429    1.00223331607    0.791906010111    
0.79190795631    1.00223806339    1.0001990974    1.00001330427    1.00000847076    
1.00000847081    1.00001330411    1.00019909668    1.00223806439    0.791907949419    
0.791999456877    1.00241990955    1.0003847952    1.00019909565    1.00019426374    
1.0001942642    1.00019909593    1.00038479398    1.00241990611    0.791999437793    
0.795341216612    1.00437493112    1.00241990817    1.00223806389    1.00223331709    
1.00223331616    1.00223806462    1.00241990608    1.00437493746    0.795341215928    
0.865801102668    0.795333753356    0.791999254898    0.791907948741    0.791906014207    
0.791906015931    0.791907946641    0.79199924694    0.795333759381    0.865801082449    

1.72709430493    1.54895161322    1.54106831205    1.54084990218    1.54084512421    
1.54084512453    1.54084990265    1.54106831849    1.54895160409    1.72709434386    
1.54896743068    1.04732000537    1.02457559223    1.02393727899    1.02392376919    
1.02392377739    1.02393728817    1.02457561474    1.04731995843    1.54896739778    
1.54106875283    1.02457559345    1.00136946768    1.00072165915    1.00070799821    
1.00070799844    1.0007216586    1.00136944662    1.024575634    1.54106873736    
1.54084991136    1.02393727908    1.00072165873    1.00007368223    1.00006002683    
1.00006002734    1.00007369743    1.0007216324    1.02393729927    1.54084988916    
1.54084512443    1.02392377717    1.00070800639    1.00006003546    1.00004637267    
1.00004637264    1.00006003521    1.00070798712    1.02392379323    1.5408451087    
1.54084512445    1.02392377748    1.00070799834    1.00006002738    1.00004636433    
1.00004637246    1.00006003503    1.00070798336    1.02392378877    1.54084510188    
1.54084991173    1.02393728818    1.00072166663    1.00007369806    1.00006003498    
1.00006003519    1.00007369743    1.0007216477    1.02393730222    1.54084989505    
1.54106875312    1.02457562183    1.00136944798    1.00072163821    1.00070797726    
1.00070798301    1.00072164338    1.00136942951    1.02457558948    1.54106870616    
1.54896742658    1.04731996438    1.02457561635    1.02393729887    1.0239237946    
1.02392378906    1.02393730364    1.02457559134    1.04732003496    1.5489674267    
1.72709434747    1.54895159045    1.54106830052    1.54084989336    1.54084511131    
1.5408451153    1.54084988844    1.54106828004    1.54895160713    1.72709430482    

3.93688930255e-07    3.86119302212e-07    3.85837597903e-07    3.85829333918e-07    3.85829127586e-07    
3.85829127597e-07    3.85829333933e-07    3.85837598119e-07    3.86119301456e-07    3.93688930647e-07    
3.86119564141e-07    2.32790119827e-07    2.29047884033e-07    2.28965936592e-07    2.28964368157e-07    
2.28964369529e-07    2.28965938095e-07    2.29047887697e-07    2.32790112385e-07    3.861195625e-07    
3.85837609428e-07    2.29047884194e-07    2.25207041212e-07    2.25122873569e-07    2.25121265209e-07    
2.25121265238e-07    2.25122873499e-07    2.25207037572e-07    2.29047890632e-07    3.85837608842e-07    
3.85829334245e-07    2.28965936607e-07    2.25122873515e-07    2.25038653821e-07    2.25037045833e-07    
2.25037045901e-07    2.25038656425e-07    2.25122869099e-07    2.28965939994e-07    3.8582933342e-07    
3.85829127598e-07    2.28964369504e-07    2.25121266591e-07    2.25037047272e-07    2.25035437994e-07    
2.25035437989e-07    2.25037047239e-07    2.25121263226e-07    2.28964372131e-07    3.85829126974e-07    
3.85829127598e-07    2.28964369542e-07    2.25121265228e-07    2.25037045905e-07    2.25035436595e-07    
2.25035437967e-07    2.25037047215e-07    2.25121262649e-07    2.28964371471e-07    3.85829126759e-07    
3.85829334258e-07    2.28965938099e-07    2.25122874857e-07    2.25038656507e-07    2.25037047204e-07    
2.25037047234e-07    2.25038656423e-07    2.25122871537e-07    2.28965940458e-07    3.85829333593e-07    
3.85837609471e-07    2.29047888759e-07    2.25207037815e-07    2.25122869998e-07    2.25121261637e-07    
2.25121262601e-07    2.25122870889e-07    2.25207034671e-07    2.29047883537e-07    3.85837607479e-07    
3.86119563574e-07    2.32790113274e-07    2.29047888023e-07    2.28965939944e-07    2.28964372337e-07    
2.28964371506e-07    2.28965940673e-07    2.2904788388e-07    2.3279012479e-07    3.86119563868e-07    
3.9368893068e-07    3.8611930087e-07    3.85837597388e-07    3.85829333518e-07    3.85829127055e-07    
3.85829127183e-07    3.85829333349e-07    3.85837596374e-07    3.8611930187e-07    3.93688930252e-07    

1.99479342293    1.94754917739    1.94579514253    1.94574369127    1.94574240665    
1.94574240672    1.94574369136    1.94579514387    1.94754917268    1.99479342538    
1.94755080843    1.04275800633    1.02210220085    1.02165076069    1.02164212071    
1.02164212827    1.02165076897    1.02210222104    1.04275796517    1.94755079821    
1.94579521428    1.02210220174    1.00098429268    1.00052245815    1.00051363334    
1.0005136335    1.00052245776    1.00098427271    1.02210223721    1.94579521063    
1.9457436933    1.02165076077    1.00052245785    1.00006037824    1.00005155626    
1.00005155663    1.00006039253    1.00052243362    1.02165077943    1.94574368817    
1.94574240673    1.02164212813    1.00051364092    1.00005156415    1.0000427351    
1.00004273507    1.00005156397    1.00051362246    1.0216421426    1.94574240284    
1.94574240673    1.02164212835    1.00051363345    1.00005155665    1.00004272742    
1.00004273495    1.00005156384    1.0005136193    1.02164213897    1.94574240151    
1.94574369339    1.021650769    1.00052246521    1.00006039298    1.00005156378    
1.00005156394    1.00006039252    1.000522447    1.02165078199    1.94574368925    
1.94579521455    1.02210222689    1.00098427404    1.00052243855    1.00051361374    
1.00051361903    1.00052244344    1.00098425679    1.02210219812    1.94579520214    
1.9475508049    1.04275797009    1.02210222283    1.02165077916    1.02164214374    
1.02164213916    1.02165078318    1.02210220001    1.04275803377    1.94755080673    
1.99479342559    1.94754916903    1.94579513932    1.94574368878    1.94574240335    
1.94574240415    1.94574368772    1.945795133    1.94754917526    1.99479342292    

1223.6498337    1118.94990956    1114.06787749    1113.93384337    1113.93098492    
1113.93098512    1113.93384367    1114.06788153    1118.94990516    1223.64986006    
1118.96057691    1254.90012427    1247.70532496    1247.37427975    1247.36636649    
1247.36636901    1247.37428275    1247.70533242    1254.90010814    1118.9605579    
1114.06816287    1247.70532557    1240.24272273    1239.90377652    1239.89570876    
1239.89570888    1239.90377623    1240.24271668    1247.70533988    1114.06815337    
1113.93384906    1247.37427978    1239.90377629    1239.56465506    1239.55658667    
1239.55658692    1239.56465956    1239.903768    1247.37428593    1113.9338354    
1113.93098504    1247.36636888    1239.89571128    1239.55658944    1239.54851888    
1239.54851886    1239.55658931    1239.89570593    1247.36637413    1113.93097547    
1113.93098505    1247.36636904    1239.8957088    1239.55658695    1239.54851625    
1239.54851876    1239.55658922    1239.89570445    1247.36637229    1113.93097116    
1113.9338493    1247.37428274    1239.9037787    1239.56465988    1239.55658922    
1239.55658931    1239.56465957    1239.90377352    1247.37428699    1113.93383915    
1114.06816295    1247.70533527    1240.24271704    1239.90377025    1239.89570247    
1239.89570428    1239.90377175    1240.24271147    1247.70532432    1114.06813475    
1118.96057559    1254.90011048    1247.7053326    1247.37428571    1247.36637468    
1247.36637246    1247.37428755    1247.70532472    1254.90013296    1118.96057483    
1223.64986252    1118.949897    1114.06787065    1113.93383815    1113.93097712    
1113.93097964    1113.93383508    1114.06785877    1118.94990616    1223.64983363    

2     4     3     1     4     2     5     6     6     5     7     8     8     7     9     10     10     9     11     12     12     11     13     14     14     13     15     16     16     15     17     18     18     17     19     20     20     19     21     22     3     4     24     23     4     6     25     24     6     8     26     25     8     10     27     26     10     12     28     27     12     14     29     28     14     16     30     29     16     18     31     30     18     20     32     31     20     22     33     32     23     24     35     34     24     25     36     35     25     26     37     36     26     27     38     37     27     28     39     38     28     29     40     39     29     30     41     40     30     31     42     41     31     32     43     42     32     33     44     43     34     35     46     45     35     36     47     46     36     37     48     47     37     38     49     48     38     39     50     49     39     40     51     50     40     41     52     51     41     42     53     52     42     43     54     53     43     44     55     54     45     46     57     56     46     47     58     57     47     48     59     58     48     49     60     59     49     50     61     60     50     51     62     61     51     52     63     62     52     53     64     63     53     54     65     64     54     55     66     65     56     57     68     67     57     58     69     68     58     59     70     69     59     60     71     70     60     61     72     71     61     62     73     72     62     63     74     73     63     64     75     74     64     65     76     75     65     66     77     76     67     68     79     78     68     69     80     79     69     70     81     80     70     71     82     81     71     72     83     82     72     73     84     83     73     74     85     84     74     75     86     85     75     76     87     86     76     77     88     87     78     79     90     89     79     80     91     90     80     81     92     91     81     82     93     92     82     83     94     93     83     84     95     94     84     85     96     95     85     86     97     96     86     87     98     97     87     88     99     98     89     90     101     100     90     91     102     101     91     92     103     102     92     93     104     103     93     94     105     104     94     95     106     105     95     96     107     106     96     97     108     107     97     98     109     108     98     99     110     109     100     101     111     112     101     102     113     111     102     103     114     113     103     104     115     114     104     105     116     115     105     106     117     116     106     107     118     117     107     108     119     118     108     109     120     119     109     110     121     120     

