Title = " tecplot out file" 
variables = "x", "y", "z", "velX", "velY", "velZ","density","pressure","viscosity","temperature", "collisionFrequency",
Zone T = "nmesh0" N = 121 E = 100 DATAPACKING = BLOCK, VARLOCATION = ([4-11]=CELLCENTERED),  ZONETYPE=FEQUADRILATERAL 
0.0    
0.0    
0.1    
0.1    
0.0    

0.1    
0.0    
0.1    
0.0    
0.1    

0.0    
0.1    
0.0    
0.1    
0.0    

0.1    
0.0    
0.1    
0.0    
0.1    

0.0    
0.1    
0.2    
0.2    
0.2    

0.2    
0.2    
0.2    
0.2    
0.2    

0.2    
0.2    
0.2    
0.3    
0.3    

0.3    
0.3    
0.3    
0.3    
0.3    

0.3    
0.3    
0.3    
0.3    
0.4    

0.4    
0.4    
0.4    
0.4    
0.4    

0.4    
0.4    
0.4    
0.4    
0.4    

0.5    
0.5    
0.5    
0.5    
0.5    

0.5    
0.5    
0.5    
0.5    
0.5    

0.5    
0.6    
0.6    
0.6    
0.6    

0.6    
0.6    
0.6    
0.6    
0.6    

0.6    
0.6    
0.7    
0.7    
0.7    

0.7    
0.7    
0.7    
0.7    
0.7    

0.7    
0.7    
0.7    
0.8    
0.8    

0.8    
0.8    
0.8    
0.8    
0.8    

0.8    
0.8    
0.8    
0.8    
0.9    

0.9    
0.9    
0.9    
0.9    
0.9    

0.9    
0.9    
0.9    
0.9    
0.9    

1.0    
1.0    
1.0    
1.0    
1.0    

1.0    
1.0    
1.0    
1.0    
1.0    

1.0    
1.0    
0.9    
1.0    
0.9    
0.8    

0.8    
0.7    
0.7    
0.6    
0.6    

0.5    
0.5    
0.4    
0.4    
0.3    

0.3    
0.2    
0.2    
0.1    
0.1    

0.0    
0.0    
1.0    
0.9    
0.8    

0.7    
0.6    
0.5    
0.4    
0.3    

0.2    
0.1    
0.0    
1.0    
0.9    

0.8    
0.7    
0.6    
0.5    
0.4    

0.3    
0.2    
0.1    
0.0    
1.0    

0.9    
0.8    
0.7    
0.6    
0.5    

0.4    
0.3    
0.2    
0.1    
0.0    

1.0    
0.9    
0.8    
0.7    
0.6    

0.5    
0.4    
0.3    
0.2    
0.1    

0.0    
1.0    
0.9    
0.8    
0.7    

0.6    
0.5    
0.4    
0.3    
0.2    

0.1    
0.0    
1.0    
0.9    
0.8    

0.7    
0.6    
0.5    
0.4    
0.3    

0.2    
0.1    
0.0    
1.0    
0.9    

0.8    
0.7    
0.6    
0.5    
0.4    

0.3    
0.2    
0.1    
0.0    
1.0    

0.9    
0.8    
0.7    
0.6    
0.5    

0.4    
0.3    
0.2    
0.1    
0.0    

0.9    
1.0    
0.8    
0.7    
0.6    

0.5    
0.4    
0.3    
0.2    
0.1    

0.0    
0.0    0.0    0.0    0.0    0.0    
0.0    0.0    0.0    0.0    0.0    
0.0    0.0    0.0    0.0    0.0    
0.0    0.0    0.0    0.0    0.0    
0.0    0.0    0.0    0.0    0.0    
0.0    0.0    0.0    0.0    0.0    
0.0    0.0    0.0    0.0    0.0    
0.0    0.0    0.0    0.0    0.0    
0.0    0.0    0.0    0.0    0.0    
0.0    0.0    0.0    0.0    0.0    
0.0    0.0    0.0    0.0    0.0    
0.0    0.0    0.0    0.0    0.0    
0.0    0.0    0.0    0.0    0.0    
0.0    0.0    0.0    0.0    0.0    
0.0    0.0    0.0    0.0    0.0    
0.0    0.0    0.0    0.0    0.0    
0.0    0.0    0.0    0.0    0.0    
0.0    0.0    0.0    0.0    0.0    
0.0    0.0    0.0    0.0    0.0    
0.0    0.0    0.0    0.0    0.0    
0.0    0.0    0.0    0.0    0.0    
0.0    0.0    0.0    0.0    0.0    
0.0    0.0    0.0    0.0    0.0    
0.0    0.0    0.0    0.0    0.0    
0.0    
0.000124686346715    0.0030519756363    0.00327085218079    0.00328160524761    0.00328204474472    
0.00328204471487    0.00328160520834    0.00327085205638    0.00305197607124    0.000124686406851    
0.000661842818055    0.0150180713223    0.0158358667233    0.0158747219923    0.0158761187815    
0.01587611744    0.0158747205935    0.0158358662771    0.0150180653248    0.000661842394258    
5.69952083845e-05    0.0013337773307    0.00139111167456    0.001393523131    0.00139359959361    
0.00139359953092    0.00139352261076    0.00139110384286    0.00133379387769    5.699578527e-05    
2.89315103101e-06    6.46028407993e-05    6.66961778453e-05    6.67736282608e-05    6.67785703064e-05    
6.67745749111e-05    6.67744453083e-05    6.66835264828e-05    6.46151747261e-05    2.89329237012e-06    
1.08764272239e-07    2.23158854956e-06    2.28635283336e-06    2.28757331517e-06    2.2879322057e-06    
2.28747360876e-06    2.28743012256e-06    2.27862566835e-06    2.23977433745e-06    1.08828443616e-07    
-1.08798146486e-07    -2.23687744696e-06    -2.28439690723e-06    -2.28641018225e-06    -2.28648594807e-06    
-2.28786102008e-06    -2.28814950607e-06    -2.29221531788e-06    -2.22830503962e-06    -1.08736535784e-07    
-2.89325114567e-06    -6.46116277753e-05    -6.66938697366e-05    -6.67743395339e-05    -6.67767049357e-05    
-6.67767648093e-05    -6.67747334523e-05    -6.670091278e-05    -6.46020637678e-05    -2.89306394672e-06    
-5.69957617148e-05    -0.00133378960031    -0.00139110584076    -0.00139351749959    -0.00139359408597    
-0.00139359519091    -0.001393518989    -0.00139111312515    -0.00133376941204    -5.69949420461e-05    
-0.000661842305935    -0.0150180639128    -0.0158358653983    -0.0158747236808    -0.0158761181726    
-0.0158761204321    -0.0158747215378    -0.0158358744502    -0.0150180696177    -0.000661843170617    
-0.00012468639128    -0.00305197613271    -0.00327085215316    -0.00328160524266    -0.00328204474782    
-0.0032820447433    -0.00328160527359    -0.00327085266184    -0.00305197550508    -0.000124686348396    

-0.000125107898914    -0.000661839944141    -5.69523650257e-05    -2.89026724182e-06    -1.08652170074e-07    
1.08647116123e-07    2.89030383704e-06    5.69525653494e-05    0.000661839453577    0.000125107942086    
-0.00305193172746    -0.0150184089349    -0.00133378852018    -6.46028548603e-05    -2.22855855221e-06    
2.23727560545e-06    6.4611678948e-05    0.00133379963073    0.0150184007427    0.00305193229248    
-0.0032708467269    -0.0158358834917    -0.00139111656932    -6.66968015653e-05    -2.28775314294e-06    
2.28415983605e-06    6.66921752114e-05    0.00139110419322    0.0158358856017    0.00327084663536    
-0.00328160491317    -0.0158747222468    -0.00139352324139    -6.67734160638e-05    -2.28470568497e-06    
2.28682222148e-06    6.67739965742e-05    0.00139351638807    0.0158747240912    0.00328160498448    
-0.00328204470159    -0.0158761172028    -0.0013936025151    -6.67777833959e-05    -2.28793699213e-06    
2.28764875994e-06    6.67764825828e-05    0.00139359329941    0.0158761183872    0.00328204476071    
-0.00328204470002    -0.0158761172076    -0.00139359956413    -6.67744139601e-05    -2.28455517636e-06    
2.28822410093e-06    6.6776665442e-05    0.00139359505297    0.0158761200993    0.003282044808    
-0.00328160487441    -0.0158747209883    -0.00139352580912    -6.6775119865e-05    -2.28761943165e-06    
2.28794467005e-06    6.67744413636e-05    0.00139351716578    0.0158747223414    0.00328160496587    
-0.00327084656868    -0.0158358856156    -0.00139110771783    -6.66863678126e-05    -2.27721524519e-06    
2.2923340059e-06    6.6700123653e-05    0.00139111351617    0.0158358905436    0.00327084721619    
-0.00305193212695    -0.0150184057445    -0.00133379763808    -6.46147186209e-05    -2.2395955645e-06    
2.22818269496e-06    6.46023818251e-05    0.00133377962799    0.0150184078751    0.00305193160084    
-0.000125107950967    -0.000661839563712    -5.69525519664e-05    -2.89034325499e-06    -1.08697782417e-07    
1.08630507088e-07    2.89014358857e-06    5.69517488018e-05    0.000661840317746    0.000125107900785    

3.70812439725e-17    1.71786397108e-17    2.9247958235e-17    2.36843023837e-17    3.57730440934e-17    
2.86080992086e-17    3.17198842723e-17    2.2435878864e-17    2.22214637088e-17    2.39994116826e-17    
3.08042458506e-17    3.92736757195e-17    3.95301948244e-17    7.267960678e-17    3.0627449551e-17    
2.6157456717e-17    4.54107023327e-17    2.64951191506e-17    2.69668193566e-17    3.53828887826e-17    
1.97142597681e-17    7.5342784603e-17    3.31537818649e-17    3.79380472719e-17    2.74808470483e-17    
3.73280810059e-17    2.70394764551e-17    5.62060125544e-17    3.41282875926e-17    2.88390666076e-17    
3.98703357516e-17    4.12695497963e-17    2.78800774342e-17    3.70602058165e-17    5.17546225487e-17    
2.99393958302e-17    5.43663873318e-17    3.45259706465e-17    2.07049512367e-17    4.53770008602e-17    
3.20486618933e-18    4.9720951679e-17    3.0934674543e-17    3.00486323863e-17    3.62993904789e-17    
3.91499096441e-17    4.39508751627e-17    4.32385925186e-17    4.9737653447e-17    2.48112243282e-17    
2.68238911522e-17    4.31969466367e-17    2.57722319609e-17    5.01468447818e-17    3.89219336719e-17    
3.62850378839e-17    2.79390876433e-17    4.00136489116e-17    4.36980668072e-17    3.17209064594e-17    
2.50611053408e-17    2.02202701963e-17    3.58780998085e-17    5.28490612552e-17    3.66252091281e-17    
5.26520070562e-17    4.11139986415e-17    2.54435390733e-17    3.3875248194e-17    3.39314875755e-17    
9.9932978973e-18    5.29234748028e-17    3.44651944332e-17    4.49465613089e-17    3.37841442219e-17    
4.08388331897e-17    3.95430169859e-17    3.87739526324e-17    3.70846089239e-17    2.54738058072e-17    
2.35226689491e-17    3.04784730033e-17    4.11415734559e-17    4.1737951919e-17    6.42247498721e-17    
4.00151987689e-17    4.19346802123e-17    3.50214607163e-17    1.28675808746e-18    2.24659836314e-17    
2.17973291007e-17    1.60742517607e-17    -4.11149184369e-19    3.17721774601e-17    2.55804617244e-17    
3.16595377743e-17    3.37545351233e-18    1.7411866059e-17    2.6203740111e-17    2.14511565169e-17    

0.852744394823    0.769012312372    0.762355127376    0.762035131346    0.762023234561    
0.762023235029    0.762035132122    0.762355131401    0.769012306746    0.852744411507    
0.769019278939    1.00506952551    1.00359903963    1.00279492202    1.00274814723    
1.00274814781    1.00279492317    1.00359904017    1.00506952117    0.769019262006    
0.762355522435    1.00359903971    1.00180871769    1.00096078249    1.00091198931    
1.00091198952    1.00096078204    1.0018087173    1.00359904346    0.762355517178    
0.762035146582    1.00279492206    1.00096078226    1.00011066278    1.00006180154    
1.00006180183    1.00011066299    1.00096078032    1.00279492382    0.7620351365    
0.762023235305    1.00274814762    1.00091198987    1.00006180236    1.00001293981    
1.00001293979    1.00006180213    1.0009119889    1.00274814925    0.762023227885    
0.762023235345    1.00274814792    1.00091198952    1.00006180197    1.0000129392    
1.00001293968    1.00006180208    1.00091198875    1.00274814846    0.762023224632    
0.762035147258    1.00279492323    1.00096078257    1.00011066344    1.00006180203    
1.00006180217    1.00011066298    1.00096078181    1.00279492342    0.762035138798    
0.762355524663    1.0035990411    1.00180871726    1.00096078116    1.0009119879    
1.00091198849    1.00096078118    1.00180871578    1.00359903912    0.762355499879    
0.769019275316    1.00506952233    1.00359904078    1.00279492348    1.00274814937    
1.00274814875    1.00279492352    1.00359903932    1.00506952751    0.769019278433    
0.852744413651    0.76901230071    0.762355123187    0.762035127551    0.7620232291    
0.762023230621    0.762035125101    0.762355110632    0.769012311429    0.852744394575    

1.70508572019    1.52919436809    1.51526854785    1.51459221632    1.51456666073    
1.51456666172    1.51459221795    1.51526855618    1.52919435545    1.70508575341    
1.52920835863    1.09815452323    1.05310727748    1.05044768201    1.05033275737    
1.05033276656    1.05044769319    1.05310729548    1.09815447885    1.52920832302    
1.5152693594    1.05310728273    1.00584506905    1.00309632781    1.0029790216    
1.00297902227    1.00309632681    1.00584504688    1.05310732263    1.51526934927    
1.51459224845    1.05044768255    1.00309632726    1.00034525136    1.00022794153    
1.00022794272    1.00034526669    1.00309629822    1.05044770566    1.51459222811    
1.51456666234    1.05033276618    1.00297903095    1.00022795149    1.00011063743    
1.00011063755    1.00022795101    1.00297900837    1.05033278377    1.51456664732    
1.51456666242    1.05033276691    1.00297902247    1.00022794292    1.00011062835    
1.00011063727    1.00022795075    1.00297900562    1.0503327793    1.51456664074    
1.51459224988    1.05044769376    1.00309633569    1.00034526807    1.00022795032    
1.00022795097    1.00034526677    1.00309631376    1.05044770671    1.51459223268    
1.51526936444    1.05310730686    1.00584504843    1.00309630408    1.00297899775    
1.00297900472    1.00309630965    1.00584502665    1.05310727777    1.51526931304    
1.52920835006    1.0981544853    1.05310730116    1.05044770468    1.05033278492    
1.05033278014    1.05044770783    1.05310727598    1.09815455579    1.52920835785    
1.70508575771    1.52919434321    1.5152685395    1.51459220871    1.51456664975    
1.51456665281    1.51459220369    1.51526851293    1.52919436649    1.70508571968    

3.94445522517e-07    3.92685344718e-07    3.92541006288e-07    3.92532545771e-07    3.92532144809e-07    
3.92532144822e-07    3.9253254579e-07    3.92541006356e-07    3.92685344416e-07    3.94445522492e-07    
3.92685373296e-07    2.41765560312e-07    2.33977936966e-07    2.33650839552e-07    2.33638960965e-07    
2.3363896251e-07    2.33650841352e-07    2.33977940103e-07    2.41765553243e-07    3.92685372893e-07    
3.92541011811e-07    2.33977937897e-07    2.25761755081e-07    2.25416447179e-07    2.25403994444e-07    
2.25403994526e-07    2.25416447079e-07    2.25761751122e-07    2.33977944367e-07    3.92541011878e-07    
3.92532546158e-07    2.33650839643e-07    2.25416447123e-07    2.25070401935e-07    2.25057928982e-07    
2.25057929146e-07    2.25070404691e-07    2.25416442189e-07    2.33650843475e-07    3.92532546095e-07    
3.92532144836e-07    2.33638962479e-07    2.25403996044e-07    2.25057930647e-07    2.2504545578e-07    
2.25045455806e-07    2.250579306e-07    2.2540399211e-07    2.3363896534e-07    3.9253214478e-07    
3.92532144837e-07    2.33638962555e-07    2.25403994565e-07    2.25057929156e-07    2.25045454238e-07    
2.25045455774e-07    2.25057930564e-07    2.25403991637e-07    2.33638964683e-07    3.92532144755e-07    
3.92532546178e-07    2.33650841442e-07    2.25416448599e-07    2.2507040486e-07    2.25057930495e-07    
2.25057930587e-07    2.25070404708e-07    2.25416444746e-07    2.3365084374e-07    3.92532546097e-07    
3.92541011941e-07    2.33977941976e-07    2.25761751411e-07    2.25416443101e-07    2.2540399036e-07    
2.25403991521e-07    2.25416444113e-07    2.25761747723e-07    2.33977937113e-07    3.9254101149e-07    
3.92685373013e-07    2.41765554166e-07    2.33977941012e-07    2.33650843362e-07    2.33638965524e-07    
2.33638964781e-07    2.33650843922e-07    2.33977936754e-07    2.41765565729e-07    3.92685373343e-07    
3.94445522494e-07    3.92685344366e-07    3.92541006282e-07    3.92532545756e-07    3.92532144782e-07    
3.92532144791e-07    3.92532545726e-07    3.92541005944e-07    3.92685344774e-07    3.94445522516e-07    

1.99952732676    1.98851740536    1.98761508047    1.98756219237    1.98755968589    
1.98755968597    1.98756219249    1.9876150809    1.98851740348    1.9995273266    
1.98851758403    1.09261548118    1.04933069473    1.04751994544    1.04745419901    
1.04745420757    1.0475199554    1.04933071209    1.09261544174    1.98851758151    
1.987615115    1.04933069988    1.00402906391    1.00213349549    1.0020651489    
1.00206514935    1.00213349494    1.00402904218    1.0493307357    1.98761511542    
1.98756219479    1.04751994594    1.00213349518    1.00023456262    1.00016612973    
1.00016613062    1.00023457774    1.00213346811    1.04751996715    1.98756219439    
1.98755968606    1.0474542074    1.00206515768    1.00016613886    1.00009769635    
1.0000976965    1.0001661386    1.00206513609    1.04745422323    1.98755968571    
1.98755968607    1.04745420782    1.00206514956    1.00016613068    1.00009768789    
1.00009769632    1.0001661384    1.00206513349    1.04745421959    1.98755968556    
1.98756219491    1.0475199559    1.00213350329    1.00023457867    1.00016613803    
1.00016613853    1.00023457783    1.00213348214    1.04751996862    1.98756219441    
1.98761511582    1.04933072247    1.00402904376    1.00213347311    1.00206512648    
1.00206513285    1.00213347867    1.00402902352    1.04933069554    1.987615113    
1.98851758226    1.09261544689    1.04933071712    1.04751996653    1.04745422425    
1.04745422014    1.04751996963    1.04933069355    1.0926155114    1.98851758432    
1.99952732661    1.98851740317    1.98761508044    1.98756219228    1.98755968573    
1.98755968578    1.98756219209    1.98761507833    1.98851740572    1.99952732675    

1205.73951369    1086.20626494    1076.71034108    1076.25295422    1076.23589404    
1076.23589471    1076.25295533    1076.71034681    1086.20625679    1205.73953726    
1086.21612354    1266.96123276    1255.42858655    1254.01112128    1253.93767471    
1253.93767738    1254.01112497    1255.42859117    1266.96121859    1086.21609936    
1076.7109026    1255.42858781    1242.72497224    1241.22737958    1241.15079053    
1241.1507909    1241.22737889    1242.72496664    1255.42860066    1076.71089522    
1076.25297599    1254.01112144    1241.22737921    1239.72635903    1239.64967605    
1239.64967662    1239.72636285    1241.22737043    1254.01112846    1076.25296171    
1076.23589511    1253.9376771    1241.1507933    1239.64967923    1239.57299304    
1239.57299305    1239.64967888    1241.15078701    1253.93768275    1076.23588459    
1076.23589517    1253.93767757    1241.15079095    1239.64967682    1239.57299029    
1239.57299287    1239.64967876    1241.15078621    1253.93768093    1076.23587998    
1076.25297696    1254.01112517    1241.22738151    1239.72636363    1239.64967861    
1239.6496789    1239.72636286    1241.22737559    1254.01112829    1076.25296496    
1076.71090583    1255.42859469    1242.72496696    1241.22737266    1241.15078351    
1241.15078574    1241.22737399    1242.72496036    1255.4285861    1076.71087053    
1086.21611824    1266.96122119    1255.42859307    1254.0111279    1253.93768313    
1253.93768142    1254.01112865    1255.4285859    1266.96124193    1086.21612286    
1205.73954029    1086.20624824    1076.71033516    1076.25294885    1076.23588631    
1076.23588847    1076.25294537    1076.71031721    1086.20626364    1205.73951334    

2     4     3     1     4     2     5     6     6     5     7     8     8     7     9     10     10     9     11     12     12     11     13     14     14     13     15     16     16     15     17     18     18     17     19     20     20     19     21     22     3     4     24     23     4     6     25     24     6     8     26     25     8     10     27     26     10     12     28     27     12     14     29     28     14     16     30     29     16     18     31     30     18     20     32     31     20     22     33     32     23     24     35     34     24     25     36     35     25     26     37     36     26     27     38     37     27     28     39     38     28     29     40     39     29     30     41     40     30     31     42     41     31     32     43     42     32     33     44     43     34     35     46     45     35     36     47     46     36     37     48     47     37     38     49     48     38     39     50     49     39     40     51     50     40     41     52     51     41     42     53     52     42     43     54     53     43     44     55     54     45     46     57     56     46     47     58     57     47     48     59     58     48     49     60     59     49     50     61     60     50     51     62     61     51     52     63     62     52     53     64     63     53     54     65     64     54     55     66     65     56     57     68     67     57     58     69     68     58     59     70     69     59     60     71     70     60     61     72     71     61     62     73     72     62     63     74     73     63     64     75     74     64     65     76     75     65     66     77     76     67     68     79     78     68     69     80     79     69     70     81     80     70     71     82     81     71     72     83     82     72     73     84     83     73     74     85     84     74     75     86     85     75     76     87     86     76     77     88     87     78     79     90     89     79     80     91     90     80     81     92     91     81     82     93     92     82     83     94     93     83     84     95     94     84     85     96     95     85     86     97     96     86     87     98     97     87     88     99     98     89     90     101     100     90     91     102     101     91     92     103     102     92     93     104     103     93     94     105     104     94     95     106     105     95     96     107     106     96     97     108     107     97     98     109     108     98     99     110     109     100     101     111     112     101     102     113     111     102     103     114     113     103     104     115     114     104     105     116     115     105     106     117     116     106     107     118     117     107     108     119     118     108     109     120     119     109     110     121     120     

