Title = " tecplot out file" 
variables = "x", "y", "z", "velX", "velY", "velZ","density","pressure","viscosity","temperature", "collisionFrequency",
Zone T = "nmesh0" N = 121 E = 100 DATAPACKING = BLOCK, VARLOCATION = ([4-11]=CELLCENTERED),  ZONETYPE=FEQUADRILATERAL 
0.0    
0.0    
0.1    
0.1    
0.0    

0.1    
0.0    
0.1    
0.0    
0.1    

0.0    
0.1    
0.0    
0.1    
0.0    

0.1    
0.0    
0.1    
0.0    
0.1    

0.0    
0.1    
0.2    
0.2    
0.2    

0.2    
0.2    
0.2    
0.2    
0.2    

0.2    
0.2    
0.2    
0.3    
0.3    

0.3    
0.3    
0.3    
0.3    
0.3    

0.3    
0.3    
0.3    
0.3    
0.4    

0.4    
0.4    
0.4    
0.4    
0.4    

0.4    
0.4    
0.4    
0.4    
0.4    

0.5    
0.5    
0.5    
0.5    
0.5    

0.5    
0.5    
0.5    
0.5    
0.5    

0.5    
0.6    
0.6    
0.6    
0.6    

0.6    
0.6    
0.6    
0.6    
0.6    

0.6    
0.6    
0.7    
0.7    
0.7    

0.7    
0.7    
0.7    
0.7    
0.7    

0.7    
0.7    
0.7    
0.8    
0.8    

0.8    
0.8    
0.8    
0.8    
0.8    

0.8    
0.8    
0.8    
0.8    
0.9    

0.9    
0.9    
0.9    
0.9    
0.9    

0.9    
0.9    
0.9    
0.9    
0.9    

1.0    
1.0    
1.0    
1.0    
1.0    

1.0    
1.0    
1.0    
1.0    
1.0    

1.0    
1.0    
0.9    
1.0    
0.9    
0.8    

0.8    
0.7    
0.7    
0.6    
0.6    

0.5    
0.5    
0.4    
0.4    
0.3    

0.3    
0.2    
0.2    
0.1    
0.1    

0.0    
0.0    
1.0    
0.9    
0.8    

0.7    
0.6    
0.5    
0.4    
0.3    

0.2    
0.1    
0.0    
1.0    
0.9    

0.8    
0.7    
0.6    
0.5    
0.4    

0.3    
0.2    
0.1    
0.0    
1.0    

0.9    
0.8    
0.7    
0.6    
0.5    

0.4    
0.3    
0.2    
0.1    
0.0    

1.0    
0.9    
0.8    
0.7    
0.6    

0.5    
0.4    
0.3    
0.2    
0.1    

0.0    
1.0    
0.9    
0.8    
0.7    

0.6    
0.5    
0.4    
0.3    
0.2    

0.1    
0.0    
1.0    
0.9    
0.8    

0.7    
0.6    
0.5    
0.4    
0.3    

0.2    
0.1    
0.0    
1.0    
0.9    

0.8    
0.7    
0.6    
0.5    
0.4    

0.3    
0.2    
0.1    
0.0    
1.0    

0.9    
0.8    
0.7    
0.6    
0.5    

0.4    
0.3    
0.2    
0.1    
0.0    

0.9    
1.0    
0.8    
0.7    
0.6    

0.5    
0.4    
0.3    
0.2    
0.1    

0.0    
0.0    0.0    0.0    0.0    0.0    
0.0    0.0    0.0    0.0    0.0    
0.0    0.0    0.0    0.0    0.0    
0.0    0.0    0.0    0.0    0.0    
0.0    0.0    0.0    0.0    0.0    
0.0    0.0    0.0    0.0    0.0    
0.0    0.0    0.0    0.0    0.0    
0.0    0.0    0.0    0.0    0.0    
0.0    0.0    0.0    0.0    0.0    
0.0    0.0    0.0    0.0    0.0    
0.0    0.0    0.0    0.0    0.0    
0.0    0.0    0.0    0.0    0.0    
0.0    0.0    0.0    0.0    0.0    
0.0    0.0    0.0    0.0    0.0    
0.0    0.0    0.0    0.0    0.0    
0.0    0.0    0.0    0.0    0.0    
0.0    0.0    0.0    0.0    0.0    
0.0    0.0    0.0    0.0    0.0    
0.0    0.0    0.0    0.0    0.0    
0.0    0.0    0.0    0.0    0.0    
0.0    0.0    0.0    0.0    0.0    
0.0    0.0    0.0    0.0    0.0    
0.0    0.0    0.0    0.0    0.0    
0.0    0.0    0.0    0.0    0.0    
0.0    
0.000283459324076    0.00582950766327    0.00610592307694    0.00611542179692    0.00611569776401    
0.0061156977369    0.00611542176262    0.00610592287081    0.00582950829372    0.000283459176921    
0.000669474955305    0.0105534265154    0.0109191259604    0.0109307288369    0.0109310133045    
0.0109310120364    0.0109307275632    0.0109191264334    0.0105534192733    0.000669473787357    
4.14673426773e-05    0.000604120840103    0.00062095904493    0.000621446680766    0.000621457621849    
0.000621457581671    0.000621446345958    0.000620951505099    0.000604137303703    4.14673018671e-05    
1.55279572105e-06    1.96263563471e-05    2.00654843408e-05    2.00747972243e-05    2.00776030748e-05    
2.00737593811e-05    2.00757878614e-05    2.0053946083e-05    1.96373914217e-05    1.5524964175e-06    
4.44226186096e-08    4.67509818378e-07    4.78253957955e-07    4.78080325552e-07    4.78284164058e-07    
4.77999385787e-07    4.77994561235e-07    4.71381524953e-07    4.74646125861e-07    4.39920806447e-08    
-4.36471717478e-08    -4.72079933302e-07    -4.76560044776e-07    -4.76936496735e-07    -4.76958595638e-07    
-4.78243350492e-07    -4.78467824645e-07    -4.83592340881e-07    -4.64363454841e-07    -4.39970432147e-08    
-1.55206408558e-06    -1.96340906327e-05    -2.00635793799e-05    -2.00757667588e-05    -2.00760398147e-05    
-2.00760731792e-05    -2.007601606e-05    -2.00700494821e-05    -1.9626058852e-05    -1.55237234693e-06    
-4.14669659312e-05    -0.000604133997815    -0.000620953694985    -0.000621441498767    -0.000621452506733    
-0.000621453458587    -0.000621442700561    -0.000620960212398    -0.000604113367345    -4.14661569165e-05    
-0.000669473070185    -0.0105534181144    -0.0109191245809    -0.0109307304206    -0.0109310123967    
-0.0109310148708    -0.0109307280509    -0.0109191332084    -0.0105534249284    -0.000669475016044    
-0.000283459169115    -0.00582950869138    -0.00610592339893    -0.00611542205522    -0.00611569811971    
-0.00611569802554    -0.00611542218874    -0.00610592426417    -0.0058295077703    -0.000283459327584    

-0.000281561745267    -0.000669247752013    -4.14147954736e-05    -1.55047969026e-06    -4.43662771706e-08    
4.35446029965e-08    1.54968853175e-06    4.14140094054e-05    0.000669245829975    0.000281561613812    
-0.00582934124485    -0.0105536334526    -0.000604125093298    -1.96262507144e-05    -4.64673488941e-07    
4.72332590107e-07    1.96340600705e-05    0.000604137199503    0.0105536242467    0.00582934256057    
-0.00610591368756    -0.0109191327055    -0.000620963251828    -2.00658687139e-05    -4.7957305169e-07    
4.7640300926e-07    2.00620740682e-05    0.000620951268731    0.0109191349407    0.00610591404365    
-0.00611542145742    -0.0109307287861    -0.000621446733426    -2.00746283486e-05    -4.75368670592e-07    
4.77198424264e-07    2.00755462068e-05    0.00062144042568    0.0109307305247    0.00611542208229    
-0.00611569772958    -0.0109310118688    -0.000621460396696    -2.00766979076e-05    -4.78317880474e-07    
4.78089260688e-07    2.00758717967e-05    0.000621451486655    0.0109310128022    0.00611569819331    
-0.00611569772858    -0.0109310118635    -0.000621457588445    -2.00736238951e-05    -4.75248879211e-07    
4.78472220402e-07    2.00759999874e-05    0.000621453381599    0.0109310146811    0.00611569838501    
-0.00611542142534    -0.0109307276126    -0.000621449274618    -2.00762206996e-05    -4.7813653899e-07    
4.78317845301e-07    2.00758085367e-05    0.0006214407668    0.0109307286418    0.0061154219311    
-0.00610591357138    -0.0109191357047    -0.000620954923277    -2.00566007788e-05    -4.70260200148e-07    
4.83661437647e-07    2.00692091285e-05    0.00062096025275    0.0109191394069    0.00610591520708    
-0.00582934175037    -0.0105536288836    -0.000604133816064    -1.96370159708e-05    -4.74441569109e-07    
4.64282233378e-07    1.96262830975e-05    0.000604116618572    0.0105536325014    0.00582934132848    
-0.000281561585091    -0.000669246353522    -4.14144643156e-05    -1.54996896367e-06    -4.38821198516e-08    
4.41009736926e-08    1.55006086242e-06    4.14135434514e-05    0.000669247739165    0.000281561748957    

1.41822583512e-17    3.64686764055e-17    2.87290073774e-17    2.52267667384e-17    2.46764182592e-17    
5.18240795642e-17    2.21427844027e-17    4.19444944157e-17    4.30108278654e-17    8.30355611727e-18    
7.13342884701e-18    4.88955679254e-17    4.66486334568e-17    3.46941696282e-17    3.72039779393e-17    
4.71807619951e-17    4.33654891294e-17    3.70318471938e-17    4.03959719817e-17    2.23989907299e-17    
3.10823492461e-17    4.75631323572e-17    3.45089151489e-17    4.58165615824e-17    5.07006910226e-17    
3.61284566174e-17    3.87053836569e-17    2.85715634777e-17    4.19040741166e-17    2.88075548507e-17    
1.10994583351e-17    2.07553540067e-17    2.76961329587e-17    3.12827423106e-17    3.70801049539e-17    
5.31110827414e-17    5.91357423361e-17    2.26869356397e-17    3.61246500646e-17    2.12447154713e-17    
8.34128817822e-18    3.29109672487e-17    3.08513175326e-17    3.04936563384e-17    3.60582663667e-17    
4.96537427978e-17    5.51349335211e-17    3.95349248202e-17    3.46067476084e-17    2.55242195468e-17    
1.92857845079e-17    3.26018701388e-17    5.79676314914e-17    3.41390709974e-17    4.16065144149e-17    
3.55275469848e-17    3.63704834242e-17    1.16178101611e-17    3.58819156952e-17    1.53510115449e-17    
2.105175415e-17    3.92178253849e-17    4.23599595945e-17    3.52538075829e-17    3.47729411965e-17    
4.40290679042e-17    3.40374545717e-17    3.91634790303e-17    5.75390250373e-17    3.05602426802e-17    
7.44029205034e-18    3.82193155825e-17    4.07360176724e-17    3.61152767199e-17    3.65650189366e-17    
2.80685055538e-17    2.48647846229e-17    2.62367893533e-17    4.12825159063e-17    4.01981816654e-17    
2.505055821e-17    2.27891596555e-17    4.26640151631e-17    2.89076274236e-17    4.01745486828e-17    
2.51297065292e-17    2.46632864527e-17    4.81409155911e-17    4.97902595767e-17    3.60536906149e-17    
2.06407204658e-17    1.93045451759e-17    4.10265280042e-17    3.95957232045e-17    5.99259615668e-17    
2.31755240435e-17    1.99454842848e-17    1.18924879347e-17    2.6815337214e-17    1.0112663619e-17    

0.860055002862    0.780412215545    0.77582236717    0.775661099847    0.775656671554    
0.775656671806    0.775661100239    0.775822370551    0.780412211529    0.860055021931    
0.780419645624    1.00493361682    1.00294241694    1.00257591707    1.00256214338    
1.00256214399    1.00257591807    1.0029424186    1.00493361171    0.780419630298    
0.77582264752    1.00294241739    1.00079211529    1.00041351644    1.0003993746    
1.00039937472    1.00041351617    1.00079211442    1.00294242201    0.77582264089    
0.775661107466    1.00257591708    1.00041351627    1.00003451342    1.00002036298    
1.00002036317    1.00003451411    1.00041351417    1.0025759187    0.775661097052    
0.775656671825    1.00256214387    1.0003993752    1.00002036377    1.00000621293    
1.00000621292    1.00002036364    1.00039937432    1.00256214549    0.775656664412    
0.775656671839    1.00256214404    1.00039937468    1.00002036323    1.00000621226    
1.00000621284    1.00002036359    1.00039937386    1.00256214466    0.775656661118    
0.775661107789    1.00257591808    1.00041351675    1.00003451439    1.00002036358    
1.00002036366    1.00003451412    1.00041351601    1.00257591882    0.775661099752    
0.775822648324    1.00294241995    1.00079211443    1.00041351506    1.00039937319    
1.0003993737    1.00041351527    1.00079211307    1.00294241697    0.775822625754    
0.780419643797    1.00493361278    1.00294241872    1.0025759185    1.00256214569    
1.00256214483    1.00257591901    1.00294241683    1.00493361886    0.780419644297    
0.860055023907    0.780412205322    0.77582236224    0.775661095855    0.775656665707    
0.77565666749    0.775661093485    0.775822352119    0.780412213455    0.860055002734    

1.71907453557    1.54299625612    1.53298120949    1.5326234106    1.53261331269    
1.53261331325    1.53262341146    1.53298121682    1.54299624582    1.71907457427    
1.54301149433    1.06656721503    1.03509892012    1.03386217897    1.03382613676    
1.03382614553    1.03386218915    1.03509894175    1.06656716756    1.54301145949    
1.53298180593    1.03509892279    1.002667755    1.00140458907    1.00136803145    
1.00136803184    1.00140458834    1.00266773307    1.03509896432    1.53298179174    
1.5326234275    1.03386217919    1.00140458859    1.00014089131    1.00010433625    
1.00010433701    1.00014090699    1.00140456056    1.03386220101    1.53262340498    
1.53261331332    1.03382614525    1.00136804027    1.00010434558    1.0000677831    
1.00006778312    1.00010434525    1.00136801934    1.03382616239    1.53261329718    
1.53261331335    1.03382614571    1.00136803184    1.00010433711    1.00006777427    
1.0000677829    1.00010434504    1.00136801577    1.03382615773    1.53261329015    
1.53262342821    1.03386218932    1.00140459689    1.00014090789    1.00010434485    
1.00010434522    1.00014090701    1.00140457644    1.03386220344    1.53262341068    
1.53298180796    1.03509895054    1.00266773447    1.00140456656    1.0013680089    
1.00136801522    1.00140457201    1.00266771425    1.03509891837    1.53298175803    
1.5430114888    1.06656717386    1.0350989448    1.03386220042    1.03382616375    
1.03382615824    1.03386220485    1.03509891911    1.06656724674    1.54301149118    
1.71907457829    1.54299623216    1.53298119863    1.53262340181    1.53261329993    
1.53261330374    1.53262339668    1.53298117571    1.54299625136    1.7190745353    

3.94328667772e-07    3.90866942087e-07    3.90672872379e-07    3.90664790444e-07    3.90664512107e-07    
3.90664512119e-07    3.90664790461e-07    3.90672872512e-07    3.90866941604e-07    3.9432866788e-07    
3.90867054487e-07    2.36142999315e-07    2.3085411791e-07    2.30698961668e-07    2.30695014354e-07    
2.30695015824e-07    2.30698963321e-07    2.30854121507e-07    2.36142991774e-07    3.90867053555e-07    
3.90672881149e-07    2.30854118307e-07    2.25369194572e-07    2.25208202123e-07    2.25204121288e-07    
2.25204121336e-07    2.25208202038e-07    2.25369190736e-07    2.30854124948e-07    3.90672880923e-07    
3.90664790825e-07    2.30698961703e-07    2.25208202066e-07    2.25047037485e-07    2.25042954172e-07    
2.25042954275e-07    2.25047040215e-07    2.25208197343e-07    2.30698965347e-07    3.90664790423e-07    
3.90664512127e-07    2.30695015796e-07    2.25204122785e-07    2.2504295573e-07    2.25038871004e-07    
2.2503887101e-07    2.25042955691e-07    2.25204119134e-07    2.30695018593e-07    3.90664511818e-07    
3.90664512128e-07    2.30695015848e-07    2.25204121343e-07    2.25042954282e-07    2.25038869516e-07    
2.25038870984e-07    2.25042955662e-07    2.25204118567e-07    2.30695017905e-07    3.9066451171e-07    
3.90664790841e-07    2.30698963349e-07    2.25208203491e-07    2.25047040331e-07    2.25042955631e-07    
2.25042955684e-07    2.25047040219e-07    2.25208199901e-07    2.30698965763e-07    3.90664790499e-07    
3.9067288124e-07    2.30854122845e-07    2.25369190991e-07    2.25208198273e-07    2.25204117438e-07    
2.25204118494e-07    2.25208199229e-07    2.25369187556e-07    2.30854117588e-07    3.90672880139e-07    
3.90867054092e-07    2.36142992701e-07    2.30854122037e-07    2.30698965279e-07    2.30695018801e-07    
2.30695017964e-07    2.30698965982e-07    2.30854117747e-07    2.36143004613e-07    3.90867054379e-07    
3.94328667893e-07    3.90866941319e-07    3.90672872149e-07    3.90664790258e-07    3.90664511858e-07    
3.90664511918e-07    3.90664790166e-07    3.90672871544e-07    3.90866941959e-07    3.94328667769e-07    

1.99879604194    1.97715543835    1.9759435592    1.97589309416    1.97589135619    
1.97589135626    1.97589309427    1.97594356003    1.97715543532    1.99879604262    
1.97715614027    1.06133101448    1.03206216293    1.03120587815    1.03118409526    
1.03118410337    1.03120588728    1.03206218278    1.06133097264    1.97715613445    
1.97594361396    1.03206216512    1.00187415517    1.00099066297    1.00096827015    
1.00096827041    1.00099066251    1.00187413411    1.03206220177    1.97594361255    
1.97589309654    1.03120587835    1.00099066266    1.00010637422    1.00008397156    
1.00008397213    1.0001063892    1.00099063675    1.03120589846    1.97589309403    
1.97589135631    1.03118410322    1.00096827836    1.00008398011    1.00006156979    
1.00006156982    1.0000839799    1.00096825833    1.03118411866    1.97589135438    
1.97589135631    1.03118410351    1.00096827045    1.00008397216    1.00006156163    
1.00006156968    1.00008397974    1.00096825522    1.03118411486    1.9758913537    
1.97589309664    1.03120588743    1.00099067048    1.00010638983    1.00008397957    
1.00008397985    1.00010638922    1.00099065078    1.03120590075    1.97589309451    
1.97594361453    1.03206219017    1.00187413551    1.00099064185    1.00096824902    
1.00096825482    1.0009906471    1.00187411666    1.03206216115    1.97594360766    
1.97715613781    1.06133097778    1.03206218571    1.03120589808    1.0311841198    
1.03118411518    1.03120590196    1.03206216203    1.06133104388    1.9771561396    
1.9987960427    1.97715543355    1.97594355776    1.975893093    1.97589135463    
1.97589135501    1.97589309243    1.97594355398    1.97715543755    1.99879604192    

1215.99184562    1101.10881149    1094.50533489    1094.27251403    1094.26608389    
1094.26608425    1094.27251459    1094.50533975    1101.1088055    1215.99187266    
1101.1193691    1259.81699216    1250.65791688    1250.00374795    1249.98155815    
1249.98156079    1250.0037513    1250.65792353    1259.81697632    1101.11934686    
1094.50573616    1250.65791796    1240.95719922    1240.27982874    1240.25702445    
1240.25702467    1240.27982829    1240.95719319    1250.65793216    1094.50572666    
1094.27252503    1250.00374802    1240.27982845    1239.6017784    1239.57896231    
1239.57896268    1239.60178279    1240.27981975    1250.00375466    1094.27251007    
1094.26608429    1249.9815606    1240.25702713    1239.5789653    1239.55614696    
1239.55614696    1239.57896509    1240.25702132    1249.98156617    1094.26607362    
1094.26608431    1249.98156087    1240.25702463    1239.57896277    1239.55614422    
1239.55614683    1239.57896499    1240.25702002    1249.98156427    1094.26606891    
1094.27252549    1250.00375135    1240.27983089    1239.60178327    1239.57896493    
1239.5789651    1239.6017828    1240.27982533    1250.00375534    1094.27251393    
1094.50573736    1250.65792691    1240.95719352    1240.27982205    1240.25701773    
1240.25701973    1240.27982354    1240.95718741    1250.65791652    1094.50570479    
1101.11936626    1259.81697882    1250.65792435    1250.00375432    1249.98156668    
1249.98156456    1250.00375586    1250.65791655    1259.81700135    1101.11936716    
1215.99187547    1101.10879656    1094.50532778    1094.27250828    1094.26607548    
1094.26607803    1094.27250487    1094.50531311    1101.10880846    1215.99184544    

2     4     3     1     4     2     5     6     6     5     7     8     8     7     9     10     10     9     11     12     12     11     13     14     14     13     15     16     16     15     17     18     18     17     19     20     20     19     21     22     3     4     24     23     4     6     25     24     6     8     26     25     8     10     27     26     10     12     28     27     12     14     29     28     14     16     30     29     16     18     31     30     18     20     32     31     20     22     33     32     23     24     35     34     24     25     36     35     25     26     37     36     26     27     38     37     27     28     39     38     28     29     40     39     29     30     41     40     30     31     42     41     31     32     43     42     32     33     44     43     34     35     46     45     35     36     47     46     36     37     48     47     37     38     49     48     38     39     50     49     39     40     51     50     40     41     52     51     41     42     53     52     42     43     54     53     43     44     55     54     45     46     57     56     46     47     58     57     47     48     59     58     48     49     60     59     49     50     61     60     50     51     62     61     51     52     63     62     52     53     64     63     53     54     65     64     54     55     66     65     56     57     68     67     57     58     69     68     58     59     70     69     59     60     71     70     60     61     72     71     61     62     73     72     62     63     74     73     63     64     75     74     64     65     76     75     65     66     77     76     67     68     79     78     68     69     80     79     69     70     81     80     70     71     82     81     71     72     83     82     72     73     84     83     73     74     85     84     74     75     86     85     75     76     87     86     76     77     88     87     78     79     90     89     79     80     91     90     80     81     92     91     81     82     93     92     82     83     94     93     83     84     95     94     84     85     96     95     85     86     97     96     86     87     98     97     87     88     99     98     89     90     101     100     90     91     102     101     91     92     103     102     92     93     104     103     93     94     105     104     94     95     106     105     95     96     107     106     96     97     108     107     97     98     109     108     98     99     110     109     100     101     111     112     101     102     113     111     102     103     114     113     103     104     115     114     104     105     116     115     105     106     117     116     106     107     118     117     107     108     119     118     108     109     120     119     109     110     121     120     

