Title = " tecplot out file" 
variables = "x", "y", "z", "velX", "velY", "velZ","density","pressure","viscosity","temperature", "collisionFrequency",
Zone T = "nmesh0" N = 121 E = 100 DATAPACKING = BLOCK, VARLOCATION = ([4-11]=CELLCENTERED),  ZONETYPE=FEQUADRILATERAL 
0.0    
0.0    
0.1    
0.1    
0.0    

0.1    
0.0    
0.1    
0.0    
0.1    

0.0    
0.1    
0.0    
0.1    
0.0    

0.1    
0.0    
0.1    
0.0    
0.1    

0.0    
0.1    
0.2    
0.2    
0.2    

0.2    
0.2    
0.2    
0.2    
0.2    

0.2    
0.2    
0.2    
0.3    
0.3    

0.3    
0.3    
0.3    
0.3    
0.3    

0.3    
0.3    
0.3    
0.3    
0.4    

0.4    
0.4    
0.4    
0.4    
0.4    

0.4    
0.4    
0.4    
0.4    
0.4    

0.5    
0.5    
0.5    
0.5    
0.5    

0.5    
0.5    
0.5    
0.5    
0.5    

0.5    
0.6    
0.6    
0.6    
0.6    

0.6    
0.6    
0.6    
0.6    
0.6    

0.6    
0.6    
0.7    
0.7    
0.7    

0.7    
0.7    
0.7    
0.7    
0.7    

0.7    
0.7    
0.7    
0.8    
0.8    

0.8    
0.8    
0.8    
0.8    
0.8    

0.8    
0.8    
0.8    
0.8    
0.9    

0.9    
0.9    
0.9    
0.9    
0.9    

0.9    
0.9    
0.9    
0.9    
0.9    

1.0    
1.0    
1.0    
1.0    
1.0    

1.0    
1.0    
1.0    
1.0    
1.0    

1.0    
1.0    
0.9    
1.0    
0.9    
0.8    

0.8    
0.7    
0.7    
0.6    
0.6    

0.5    
0.5    
0.4    
0.4    
0.3    

0.3    
0.2    
0.2    
0.1    
0.1    

0.0    
0.0    
1.0    
0.9    
0.8    

0.7    
0.6    
0.5    
0.4    
0.3    

0.2    
0.1    
0.0    
1.0    
0.9    

0.8    
0.7    
0.6    
0.5    
0.4    

0.3    
0.2    
0.1    
0.0    
1.0    

0.9    
0.8    
0.7    
0.6    
0.5    

0.4    
0.3    
0.2    
0.1    
0.0    

1.0    
0.9    
0.8    
0.7    
0.6    

0.5    
0.4    
0.3    
0.2    
0.1    

0.0    
1.0    
0.9    
0.8    
0.7    

0.6    
0.5    
0.4    
0.3    
0.2    

0.1    
0.0    
1.0    
0.9    
0.8    

0.7    
0.6    
0.5    
0.4    
0.3    

0.2    
0.1    
0.0    
1.0    
0.9    

0.8    
0.7    
0.6    
0.5    
0.4    

0.3    
0.2    
0.1    
0.0    
1.0    

0.9    
0.8    
0.7    
0.6    
0.5    

0.4    
0.3    
0.2    
0.1    
0.0    

0.9    
1.0    
0.8    
0.7    
0.6    

0.5    
0.4    
0.3    
0.2    
0.1    

0.0    
0.0    0.0    0.0    0.0    0.0    
0.0    0.0    0.0    0.0    0.0    
0.0    0.0    0.0    0.0    0.0    
0.0    0.0    0.0    0.0    0.0    
0.0    0.0    0.0    0.0    0.0    
0.0    0.0    0.0    0.0    0.0    
0.0    0.0    0.0    0.0    0.0    
0.0    0.0    0.0    0.0    0.0    
0.0    0.0    0.0    0.0    0.0    
0.0    0.0    0.0    0.0    0.0    
0.0    0.0    0.0    0.0    0.0    
0.0    0.0    0.0    0.0    0.0    
0.0    0.0    0.0    0.0    0.0    
0.0    0.0    0.0    0.0    0.0    
0.0    0.0    0.0    0.0    0.0    
0.0    0.0    0.0    0.0    0.0    
0.0    0.0    0.0    0.0    0.0    
0.0    0.0    0.0    0.0    0.0    
0.0    0.0    0.0    0.0    0.0    
0.0    0.0    0.0    0.0    0.0    
0.0    0.0    0.0    0.0    0.0    
0.0    0.0    0.0    0.0    0.0    
0.0    0.0    0.0    0.0    0.0    
0.0    0.0    0.0    0.0    0.0    
0.0    
0.000458923889444    0.00773784371374    0.00805140607743    0.00806091353954    0.00806115884119    
0.00806115881527    0.00806091350707    0.00805140583974    0.0077378444203    0.000458923609237    
0.000692661345874    0.00945890061373    0.00974420983687    0.00975225321516    0.00975242982783    
0.00975242858692    0.00975225197743    0.00974421050544    0.00945889317063    0.000692659789832    
3.86030757716e-05    0.000474232602367    0.000485845916606    0.000486148209781    0.000486154361192    
0.000486154326095    0.000486147917543    0.000485838504301    0.000474248907831    3.86027174858e-05    
1.31099664833e-06    1.3693146409e-05    1.39700473798e-05    1.39742514421e-05    1.39768995803e-05    
1.3973121642e-05    1.39752687731e-05    1.39588544569e-05    1.37038000278e-05    1.31048874094e-06    
3.44711290197e-08    2.92205153613e-07    2.99407875695e-07    2.9917646941e-07    2.99350807204e-07    
2.99106588693e-07    2.99100488067e-07    2.92783749135e-07    2.99058404425e-07    3.37991651254e-08    
-3.33000981862e-08    -2.9658693777e-07    -2.9778515515e-07    -2.98045370276e-07    -2.98062468082e-07    
-2.99317225697e-07    -2.99519939569e-07    -3.04586199913e-07    -2.89118603182e-07    -3.38510513333e-08    
-1.3098633578e-06    -1.37005798013e-05    -1.39682454621e-05    -1.39752650481e-05    -1.39754121911e-05    
-1.39754405234e-05    -1.39754835862e-05    -1.39745294175e-05    -1.36929537945e-05    -1.3104119869e-06    
-3.86022267263e-05    -0.000474245837742    -0.000485840715543    -0.000486143171576    -0.000486149377899    
-0.000486150288695    -0.000486144302922    -0.000485847014581    -0.000474225298378    -3.86014069509e-05    
-0.000692658759332    -0.0094588920792    -0.00974420847021    -0.00975225475904    -0.0097524288735    
-0.00975243135854    -0.00975225237479    -0.00974421690425    -0.00945889908188    -0.000692661261365    
-0.000458923608723    -0.00773784496615    -0.00805140655916    -0.00806091391488    -0.00806115935761    
-0.00806115921968    -0.00806091409671    -0.00805140759385    -0.00773784391007    -0.000458923893039    

-0.000454151570513    -0.000692277417942    -3.85472995386e-05    -1.3088641384e-06    -3.44282156606e-08    
3.32090542783e-08    1.30767161181e-06    3.85460179595e-05    0.000692274760862    0.000454151328607    
-0.00773761352016    -0.00945907607019    -0.000474235723203    -1.36930331242e-05    -2.89434980667e-07    
2.96806280583e-07    1.37005489859e-05    0.000474247940094    0.00945906673214    0.00773761516571    
-0.00805139546541    -0.00974421485896    -0.000485849981675    -1.39703788364e-05    -3.00698760998e-07    
2.97647027091e-07    1.39667959264e-05    0.000485838193436    0.00974421711082    0.00805139602159    
-0.0080609132136    -0.00975225313321    -0.000486148251647    -1.3974094594e-05    -2.9652146803e-07    
2.98272501849e-07    1.39750735312e-05    0.000486142120102    0.0097522548295    0.00806091409123    
-0.00806115881019    -0.00975242843679    -0.000486157080205    -1.39759769222e-05    -2.99390675403e-07    
2.99177321877e-07    1.39752578238e-05    0.000486148325661    0.00975242931503    0.00806115945715    
-0.0080611588093    -0.00975242842924    -0.000486154327385    -1.39729938062e-05    -2.96415864916e-07    
2.99515452621e-07    1.39753742247e-05    0.000486150225474    0.00975243120216    0.00806115971684    
-0.00806091318355    -0.00975225198593    -0.00048615076535    -1.39756467066e-05    -2.99231591616e-07    
2.99383607212e-07    1.39752960768e-05    0.000486142373393    0.00975225294573    0.00806091387635    
-0.00805139536663    -0.00974421802167    -0.000485841832781    -1.39614446164e-05    -2.91730501593e-07    
3.04645514984e-07    1.39736909784e-05    0.000485847021182    0.0097442214188    0.00805139746293    
-0.00773761406276    -0.00945907124555    -0.000474244297203    -1.37034650698e-05    -2.98849205649e-07    
2.89047657398e-07    1.36931717399e-05    0.000474227433446    0.00945907515924    0.00773761367993    
-0.000454151275178    -0.000692275487969    -3.85467084372e-05    -1.30806882868e-06    -3.36868364484e-08    
3.40462967018e-08    1.30830125519e-06    3.8545713367e-05    0.000692277206278    0.000454151574249    

2.7474627018e-17    2.45216418832e-17    2.20074088826e-17    4.81982036866e-17    2.72383766597e-17    
1.10505637907e-17    4.28367363079e-17    3.1939941653e-17    1.76083696837e-17    1.95923467978e-17    
1.86955268434e-17    3.55087545293e-17    4.16709987921e-17    3.83197661937e-17    1.9835445974e-17    
3.88546455488e-17    5.56799071556e-17    3.24674645039e-17    3.44195387997e-17    1.64305602224e-17    
2.54886937372e-17    3.70507288854e-17    3.77810237796e-17    3.71207477878e-17    5.37657274421e-17    
3.28035124595e-17    4.56243552316e-17    3.91176657407e-17    3.85335769723e-17    2.23062420626e-17    
3.29183237888e-17    2.69903554679e-17    4.01937584999e-17    4.26523617845e-17    5.27855214058e-17    
3.3137346665e-17    1.48414534794e-17    3.60713837922e-17    4.13266736933e-17    5.72956806404e-17    
-8.12310061545e-19    4.62934431975e-17    5.16413297531e-17    2.63034305403e-17    4.2560891645e-17    
5.20802141774e-17    2.74009985748e-17    4.51527268005e-17    3.01117241231e-17    2.60014598142e-17    
2.49738037321e-17    3.67543247147e-17    4.61658052794e-17    2.9893347622e-17    4.06746645618e-17    
5.1708787487e-17    2.93405230192e-17    4.5560703963e-17    4.5728812282e-17    1.31769182961e-17    
1.71510407312e-17    4.22391501011e-17    3.84954329776e-17    3.55913058016e-17    5.5709759401e-17    
4.82572814872e-17    3.04912902682e-17    3.56586842975e-17    6.39865608308e-17    2.94972025652e-17    
3.21121824318e-17    5.57233621504e-17    2.55118915147e-17    6.76206811791e-18    3.59023896111e-17    
3.28651826194e-17    3.67207513457e-17    3.27279647166e-17    3.81241172397e-17    2.93211333427e-17    
3.67141704874e-18    3.74755089611e-17    3.71196566682e-17    5.40026921314e-17    3.18639018739e-17    
3.39587888289e-17    4.01395672728e-17    2.32025588461e-17    2.76708897448e-17    4.10024999841e-17    
4.4175433275e-17    1.41762412657e-17    4.57225924284e-17    2.30731234084e-17    2.55727775932e-17    
2.43141800492e-17    3.47627878681e-17    2.15463696369e-17    3.71720377812e-17    2.23316283996e-17    

0.861981716272    0.784908810421    0.780805050644    0.780673151428    0.780669843278    
0.780669843484    0.780673151741    0.780805053811    0.784908806868    0.861981735415    
0.784916290761    1.0047648973    1.00275261382    1.00246580014    1.00245633179    
1.00245633241    1.00246580109    1.00275261573    1.00476489205    0.78491627625    
0.78080529995    1.00275261424    1.00061458148    1.00031966131    1.0003099741    
1.0003099742    1.00031966108    1.00061458051    1.00275261901    0.780805293251    
0.780673157494    1.00246580015    1.00031966116    1.00002449924    1.00001480755    
1.00001480772    1.00002450003    1.00031965904    1.00246580172    0.780673147341    
0.780669843467    1.0024563323    1.0003099747    1.00001480832    1.00000511625    
1.00000511624    1.00001480822    1.00030997384    1.0024563339    0.780669836294    
0.780669843478    1.00245633244    1.00030997415    1.00001480776    1.00000511558    
1.00000511617    1.00001480817    1.00030997332    1.00245633307    0.780669833081    
0.780673157748    1.00246580109    1.00031966167    1.00002450026    1.00001480816    
1.00001480823    1.00002450004    1.00031966093    1.00246580195    0.780673150043    
0.780805300438    1.00275261704    1.00061458053    1.00031965994    1.0003099727    
1.0003099732    1.00031966018    1.00061457922    1.00275261386    0.780805278953    
0.784916289389    1.00476489308    1.00275261572    1.00246580155    1.00245633411    
1.00245633321    1.00246580216    1.00275261374    1.00476489932    0.784916289371    
0.861981737314    0.78490880083    0.780805045735    0.780673147546    0.780669837548    
0.780669839339    0.78067314525    0.780805036375    0.784908808203    0.861981716178    

1.72223716026    1.54573226331    1.53656362828    1.53626400074    1.53625625577    
1.53625625623    1.53626400144    1.5365636353    1.54573225351    1.72223719954    
1.54574776997    1.05904742909    1.03094880126    1.02996949173    1.02994404872    
1.02994405732    1.02996950158    1.03094882345    1.05904738143    1.54574773564    
1.53656416719    1.03094880332    1.00210631362    1.00110864134    1.0010828667    
1.00108286703    1.00110864067    1.0021062919    1.03094884479    1.53656415229    
1.53626401448    1.02996949189    1.00110864088    1.00011061871    1.00008484798    
1.00008484864    1.00011063431    1.00110861333    1.02996951322    1.53626399182    
1.53625625622    1.02994405706    1.00108287532    1.00008485709    1.00005907884    
1.00005907884    1.00008485679    1.00108285494    1.02994407391    1.53625624006    
1.53625625624    1.02994405746    1.00108286698    1.00008484871    1.00005907015    
1.00005907864    1.00008485659    1.00108285124    1.02994406928    1.53625623303    
1.53626401505    1.02996950168    1.00110864907    1.00011063511    1.00008485646    
1.00008485676    1.00011063433    1.00110862911    1.0299695159    1.53626399767    
1.53656416851    1.03094883158    1.00210629328    1.0011086193    1.00108284464    
1.00108285077    1.00110862468    1.00210627361    1.03094879906    1.5365641194    
1.54574776506    1.05904738764    1.03094882591    1.0299695127    1.02994407529    
1.0299440697    1.02996951733    1.03094880032    1.05904746023    1.5457477664    
1.72223720344    1.54573223971    1.53656361701    1.53626399183    1.53625624279    
1.53625624673    1.53626398673    1.53656359499    1.54573225794    1.72223716006    

3.94201027948e-07    3.89610889766e-07    3.893877722e-07    3.89379547811e-07    3.8937929427e-07    
3.89379294282e-07    3.89379547828e-07    3.89387772361e-07    3.89610889193e-07    3.9420102814e-07    
3.89611048098e-07    2.34825446423e-07    2.30139386627e-07    2.30015586759e-07    2.3001274404e-07    
2.3001274548e-07    2.30015588363e-07    2.30139390286e-07    2.34825438857e-07    3.89611046923e-07    
3.89387782114e-07    2.30139386921e-07    2.25299344722e-07    2.25171401151e-07    2.25168471595e-07    
2.25168471635e-07    2.25171401072e-07    2.25299340942e-07    2.30139393533e-07    3.89387781761e-07    
3.89379548181e-07    2.30015586785e-07    2.25171401095e-07    2.25043345287e-07    2.25040414759e-07    
2.25040414848e-07    2.25043347986e-07    2.25171396463e-07    2.30015590352e-07    3.89379547631e-07    
3.89379294287e-07    2.30012745453e-07    2.25168473055e-07    2.25040416279e-07    2.25037484388e-07    
2.25037484389e-07    2.25040416242e-07    2.25168469497e-07    2.30012748206e-07    3.89379293867e-07    
3.89379294288e-07    2.300127455e-07    2.25168471635e-07    2.25040414854e-07    2.25037482925e-07    
2.25037484365e-07    2.25040416215e-07    2.25168468919e-07    2.3001274752e-07    3.89379293722e-07    
3.89379548196e-07    2.30015588381e-07    2.25171402496e-07    2.25043348088e-07    2.25040416193e-07    
2.25040416236e-07    2.25043347987e-07    2.25171398994e-07    2.30015590793e-07    3.8937954774e-07    
3.89387782188e-07    2.30139391511e-07    2.25299341191e-07    2.25171397388e-07    2.2516846783e-07    
2.25168468855e-07    2.25171398323e-07    2.25299337848e-07    2.30139386223e-07    3.89387780785e-07    
3.89611047647e-07    2.34825439776e-07    2.30139390731e-07    2.30015590291e-07    2.30012748415e-07    
2.3001274757e-07    2.30015591015e-07    2.30139386471e-07    2.34825451633e-07    3.89611047928e-07    
3.94201028159e-07    3.89610888803e-07    3.8938777187e-07    3.8937954755e-07    3.89379293922e-07    
3.89379294006e-07    3.89379547431e-07    3.89387771131e-07    3.89610889561e-07    3.94201027945e-07    

1.99799732146    1.9693144513    1.96792224513    1.96787093027    1.96786934835    
1.96786934842    1.96787093038    1.96792224614    1.96931444772    1.99799732266    
1.96931543932    1.0540251077    1.02811878728    1.0274360398    1.02742036342    
1.02742037136    1.02743604865    1.02811880745    1.05402506578    1.96931543199    
1.96792230699    1.0281187889    1.00149081591    1.0007887279    1.0007726531    
1.00077265332    1.00078872746    1.00149079517    1.02811882537    1.96792230479    
1.96787093258    1.02743603995    1.00078872759    1.00008611737    1.00007003939    
1.00007003988    1.00008613217    1.00078870217    1.02743605962    1.96787092915    
1.96786934845    1.02742037121    1.00077266112    1.00007004773    1.00005396232    
1.00005396233    1.00007004753    1.0007726416    1.02742038639    1.96786934583    
1.96786934846    1.02742037147    1.00077265333    1.00007003991    1.0000539543    
1.00005396219    1.00007004738    1.00077263842    1.02742038261    1.96786934493    
1.96787093268    1.02743604875    1.00078873528    1.00008613274    1.00007004725    
1.00007004749    1.00008613218    1.00078871606    1.02743606205    1.96787092983    
1.96792230745    1.02811881421    1.00149079654    1.00078870725    1.00077263245    
1.00077263807    1.00078871238    1.00149077819    1.02811878505    1.9679222987    
1.96931543651    1.05402507087    1.02811880991    1.02743605928    1.02742038755    
1.02742038289    1.02743606327    1.02811878641    1.05402513657    1.96931543826    
1.99799732278    1.96931444529    1.96792224308    1.96787092864    1.96786934618    
1.9678693467    1.9678709279    1.96792223847    1.96931445002    1.99799732145    

1218.62339133    1106.6173925    1100.68372859    1100.49234082    1100.48750933    
1100.48750963    1100.49234127    1100.68373316    1106.61738711    1218.62341853    
1106.62804428    1257.95342101    1249.51206407    1248.99701724    1248.98159959    
1248.98160219    1248.99702047    1249.5120711    1257.95340493    1106.62802304    
1100.6840866    1249.51206497    1240.64684838    1240.11593126    1240.10013725    
1240.10013743    1240.11593087    1240.64684231    1249.51207934    1100.68407692    
1100.49234962    1248.99701729    1240.115931    1239.58459476    1239.56879503    
1239.56879535    1239.58459923    1240.11592239    1248.99702378    1100.49233494    
1100.48750961    1248.98160203    1240.10013988    1239.56879795    1239.552996    
1239.55299599    1239.56879777    1240.10013422    1248.98160752    1100.48749922    
1100.48750963    1248.98160226    1240.10013737    1239.56879541    1239.55299329    
1239.55299588    1239.56879768    1240.10013284    1248.98160562    1100.4874946    
1100.49234999    1248.99702049    1240.11593344    1239.58459965    1239.56879764    
1239.56879778    1239.58459924    1240.115928    1248.99702463    1100.49233882    
1100.68408734    1249.5120743    1240.64684265    1240.11592469    1240.10013065    
1240.10013259    1240.1159262    1240.64683671    1249.5120636    1100.68405612    
1106.62804205    1257.95340738    1249.51207167    1248.99702349    1248.98160805    
1248.98160586    1248.99702518    1249.51206378    1257.95343009    1106.62804221    
1218.62342123    1106.61737834    1100.68372145    1100.49233518    1100.48750103    
1100.48750361    1100.49233186    1100.68370776    1106.61738924    1218.62339119    

2     4     3     1     4     2     5     6     6     5     7     8     8     7     9     10     10     9     11     12     12     11     13     14     14     13     15     16     16     15     17     18     18     17     19     20     20     19     21     22     3     4     24     23     4     6     25     24     6     8     26     25     8     10     27     26     10     12     28     27     12     14     29     28     14     16     30     29     16     18     31     30     18     20     32     31     20     22     33     32     23     24     35     34     24     25     36     35     25     26     37     36     26     27     38     37     27     28     39     38     28     29     40     39     29     30     41     40     30     31     42     41     31     32     43     42     32     33     44     43     34     35     46     45     35     36     47     46     36     37     48     47     37     38     49     48     38     39     50     49     39     40     51     50     40     41     52     51     41     42     53     52     42     43     54     53     43     44     55     54     45     46     57     56     46     47     58     57     47     48     59     58     48     49     60     59     49     50     61     60     50     51     62     61     51     52     63     62     52     53     64     63     53     54     65     64     54     55     66     65     56     57     68     67     57     58     69     68     58     59     70     69     59     60     71     70     60     61     72     71     61     62     73     72     62     63     74     73     63     64     75     74     64     65     76     75     65     66     77     76     67     68     79     78     68     69     80     79     69     70     81     80     70     71     82     81     71     72     83     82     72     73     84     83     73     74     85     84     74     75     86     85     75     76     87     86     76     77     88     87     78     79     90     89     79     80     91     90     80     81     92     91     81     82     93     92     82     83     94     93     83     84     95     94     84     85     96     95     85     86     97     96     86     87     98     97     87     88     99     98     89     90     101     100     90     91     102     101     91     92     103     102     92     93     104     103     93     94     105     104     94     95     106     105     95     96     107     106     96     97     108     107     97     98     109     108     98     99     110     109     100     101     111     112     101     102     113     111     102     103     114     113     103     104     115     114     104     105     116     115     105     106     117     116     106     107     118     117     107     108     119     118     108     109     120     119     109     110     121     120     

