Title = " tecplot out file" 
variables = "x", "y", "z", "velX", "velY", "velZ","density","pressure","viscosity","temperature", "collisionFrequency",
Zone T = "nmesh0" N = 121 E = 100 DATAPACKING = BLOCK, VARLOCATION = ([4-11]=CELLCENTERED),  ZONETYPE=FEQUADRILATERAL 
0.0    
0.0    
0.1    
0.1    
0.0    

0.1    
0.0    
0.1    
0.0    
0.1    

0.0    
0.1    
0.0    
0.1    
0.0    

0.1    
0.0    
0.1    
0.0    
0.1    

0.0    
0.1    
0.2    
0.2    
0.2    

0.2    
0.2    
0.2    
0.2    
0.2    

0.2    
0.2    
0.2    
0.3    
0.3    

0.3    
0.3    
0.3    
0.3    
0.3    

0.3    
0.3    
0.3    
0.3    
0.4    

0.4    
0.4    
0.4    
0.4    
0.4    

0.4    
0.4    
0.4    
0.4    
0.4    

0.5    
0.5    
0.5    
0.5    
0.5    

0.5    
0.5    
0.5    
0.5    
0.5    

0.5    
0.6    
0.6    
0.6    
0.6    

0.6    
0.6    
0.6    
0.6    
0.6    

0.6    
0.6    
0.7    
0.7    
0.7    

0.7    
0.7    
0.7    
0.7    
0.7    

0.7    
0.7    
0.7    
0.8    
0.8    

0.8    
0.8    
0.8    
0.8    
0.8    

0.8    
0.8    
0.8    
0.8    
0.9    

0.9    
0.9    
0.9    
0.9    
0.9    

0.9    
0.9    
0.9    
0.9    
0.9    

1.0    
1.0    
1.0    
1.0    
1.0    

1.0    
1.0    
1.0    
1.0    
1.0    

1.0    
1.0    
0.9    
1.0    
0.9    
0.8    

0.8    
0.7    
0.7    
0.6    
0.6    

0.5    
0.5    
0.4    
0.4    
0.3    

0.3    
0.2    
0.2    
0.1    
0.1    

0.0    
0.0    
1.0    
0.9    
0.8    

0.7    
0.6    
0.5    
0.4    
0.3    

0.2    
0.1    
0.0    
1.0    
0.9    

0.8    
0.7    
0.6    
0.5    
0.4    

0.3    
0.2    
0.1    
0.0    
1.0    

0.9    
0.8    
0.7    
0.6    
0.5    

0.4    
0.3    
0.2    
0.1    
0.0    

1.0    
0.9    
0.8    
0.7    
0.6    

0.5    
0.4    
0.3    
0.2    
0.1    

0.0    
1.0    
0.9    
0.8    
0.7    

0.6    
0.5    
0.4    
0.3    
0.2    

0.1    
0.0    
1.0    
0.9    
0.8    

0.7    
0.6    
0.5    
0.4    
0.3    

0.2    
0.1    
0.0    
1.0    
0.9    

0.8    
0.7    
0.6    
0.5    
0.4    

0.3    
0.2    
0.1    
0.0    
1.0    

0.9    
0.8    
0.7    
0.6    
0.5    

0.4    
0.3    
0.2    
0.1    
0.0    

0.9    
1.0    
0.8    
0.7    
0.6    

0.5    
0.4    
0.3    
0.2    
0.1    

0.0    
0.0    0.0    0.0    0.0    0.0    
0.0    0.0    0.0    0.0    0.0    
0.0    0.0    0.0    0.0    0.0    
0.0    0.0    0.0    0.0    0.0    
0.0    0.0    0.0    0.0    0.0    
0.0    0.0    0.0    0.0    0.0    
0.0    0.0    0.0    0.0    0.0    
0.0    0.0    0.0    0.0    0.0    
0.0    0.0    0.0    0.0    0.0    
0.0    0.0    0.0    0.0    0.0    
0.0    0.0    0.0    0.0    0.0    
0.0    0.0    0.0    0.0    0.0    
0.0    0.0    0.0    0.0    0.0    
0.0    0.0    0.0    0.0    0.0    
0.0    0.0    0.0    0.0    0.0    
0.0    0.0    0.0    0.0    0.0    
0.0    0.0    0.0    0.0    0.0    
0.0    0.0    0.0    0.0    0.0    
0.0    0.0    0.0    0.0    0.0    
0.0    0.0    0.0    0.0    0.0    
0.0    0.0    0.0    0.0    0.0    
0.0    0.0    0.0    0.0    0.0    
0.0    0.0    0.0    0.0    0.0    
0.0    0.0    0.0    0.0    0.0    
0.0    
0.000138400133611    0.00344632442739    0.00366918977049    0.00367916866006    0.00367954168588    
0.00367954165677    0.00367916862223    0.00366918962861    0.0034463249022    0.000138400164433    
0.000653659206951    0.0136037684003    0.0142557242481    0.0142832787841    0.0142841645932    
0.0142841632712    0.0142832774238    0.0142557241061    0.0136037619635    0.000653658657063    
5.12027647211e-05    0.0010657592915    0.0011062213081    0.00110774630379    0.00110778994527    
0.00110778989007    0.00110774584446    0.00110621354881    0.00106577586637    5.12032365419e-05    
2.38279804466e-06    4.59935032239e-05    4.73280102041e-05    4.73715622921e-05    4.73753902451e-05    
4.73714316804e-05    4.73724426768e-05    4.7315683319e-05    4.60054486243e-05    2.38285642071e-06    
8.28179686556e-08    1.42684539986e-06    1.46000608188e-06    1.46046370063e-06    1.46076373569e-06    
1.46036146265e-06    1.46034231147e-06    1.45253685707e-06    1.43470433092e-06    8.2792368706e-08    
-8.27059335367e-08    -1.431906647e-06    -1.45813045639e-06    -1.45930403128e-06    -1.45935317688e-06    
-1.46070233141e-06    -1.46097828314e-06    -1.46571312922e-06    -1.42359497325e-06    -8.27185779447e-08    
-2.38274576552e-06    -4.60019740503e-05    -4.73258289713e-05    -4.73723656941e-05    -4.73736221889e-05    
-4.73736724759e-05    -4.73727099932e-05    -4.73327080337e-05    -4.59928849575e-05    -2.3826499324e-06    
-5.12031583279e-05    -0.0010657718995    -0.00110621561669    -0.00110774080252    -0.00110778454847    
-0.00110778560601    -0.00110774219901    -0.00110622266768    -0.00106575149027    -5.1202341962e-05    
-0.000653658457724    -0.0136037606289    -0.0142557228948    -0.0142832804448    -0.0142841638773    
-0.014284166223    -0.0142832782117    -0.0142557318488    -0.0136037667203    -0.000653659509083    
-0.00013840014934    -0.00344632502927    -0.00366918980961    -0.00367916870666    -0.00367954175657    
-0.00367954173588    -0.00367916875643    -0.00366919038373    -0.00344632434678    -0.000138400135987    

-0.000138721556601    -0.000653627066198    -5.11576202029e-05    -2.38008531191e-06    -8.27242604883e-08    
8.25709233431e-08    2.37997096306e-06    5.11576498846e-05    0.0006536263288    0.000138721574691    
-0.00344625919416    -0.0136040646216    -0.00106576785425    -4.5993459836e-05    -1.42386952379e-06    
1.43225705887e-06    4.60019808987e-05    0.00106577933489    0.0136040560579    0.0034462599049    
-0.00366918340981    -0.0142557373045    -0.0011062259487    -4.73285536958e-05    -1.46138366966e-06    
1.45791909783e-06    4.73241897732e-05    0.00110621365893    0.0142557394591    0.00366918340503    
-0.0036791683221    -0.0142832789054    -0.00110774639284    -4.73713626816e-05    -1.45763846007e-06    
1.45966725251e-06    4.73720619415e-05    0.00110773969635    0.0142832807226    0.00367916849954    
-0.00367954164503    -0.0142841630553    -0.00110779282823    -4.73745606249e-05    -1.46077825085e-06    
1.46050851719e-06    4.73734167131e-05    0.00110778367743    0.0142841641565    0.00367954178199    
-0.00367954164366    -0.0142841630569    -0.00110778991418    -4.73712778316e-05    -1.45748914058e-06    
1.46102127001e-06    4.7373580981e-05    0.00110778548805    0.0142841659357    0.00367954185627    
-0.00367916828533    -0.0142832776725    -0.00110774896114    -4.73730375998e-05    -1.4605160774e-06    
1.46079059225e-06    4.73724450999e-05    0.00110774032656    0.0142832789166    0.00367916845625    
-0.00366918325978    -0.0142557397269    -0.00110621724497    -4.7318472264e-05    -1.45121947623e-06    
1.46581424869e-06    4.73318954895e-05    0.00110622290206    0.0142557442669    0.00366918409284    
-0.00344625961604    -0.0136040609589    -0.00106577686518    -4.60049985481e-05    -1.43451716858e-06    
1.42348554638e-06    4.59931563812e-05    0.00106575906065    0.0136040635897    0.00344625911298    
-0.000138721578336    -0.000653626512508    -5.11577175338e-05    -2.38005385602e-06    -8.26731535668e-08    
8.26577316556e-08    2.3799092154e-06    5.11568957913e-05    0.000653627373665    0.000138721559179    

1.59785236415e-17    2.11084262527e-17    2.7128787702e-17    2.99113712668e-17    2.48823710473e-17    
2.67123406912e-17    1.52348659117e-17    3.73514726424e-17    2.47592096788e-17    2.36101923486e-17    
1.64474372831e-17    2.30950001155e-17    4.95820668153e-17    3.01919939358e-17    5.98152661241e-17    
3.21762935073e-17    5.6039893092e-17    4.41912128121e-17    1.4940743052e-17    2.49395445827e-17    
2.19206931687e-17    4.60666514014e-17    3.49630526121e-17    3.79452817473e-17    1.17320837744e-17    
3.3373269089e-17    2.68367523011e-17    1.82840916586e-17    6.27688854004e-17    2.2971489525e-17    
2.3238242549e-17    3.52640758725e-17    2.66063231843e-17    2.86013414784e-17    4.36352118973e-17    
1.63104834514e-17    4.21522948553e-17    2.23906451172e-17    4.93508435699e-17    2.18608905767e-17    
2.64137478871e-17    2.73572743576e-17    2.26582370816e-17    1.94676283509e-17    5.06528685984e-17    
4.00968269805e-17    2.76167317348e-17    3.4037438605e-17    3.23102247692e-17    2.36293524351e-17    
2.09876132337e-17    5.38818539487e-17    3.45299199599e-17    4.26414507893e-17    3.37965038757e-17    
4.20787673117e-17    3.72423471418e-17    4.33484069351e-17    2.30047886792e-17    2.31621816434e-17    
2.15324009816e-17    4.39320629124e-17    4.11320591366e-17    2.63350233668e-17    3.0932680537e-17    
3.31451408884e-17    4.49956131123e-17    3.59737761428e-17    5.85687073443e-17    3.94618997529e-17    
5.71248568521e-19    2.41611147976e-17    5.52846499537e-17    2.29220784121e-17    3.62527052972e-17    
4.69226104595e-17    3.01379740915e-17    2.85442354937e-17    4.42922385987e-17    3.2737831558e-17    
1.96579184733e-17    2.95330361495e-17    3.72140161928e-17    2.76365360259e-17    3.56769276494e-17    
1.70785614146e-17    4.47486937767e-17    3.70828504313e-17    2.6365367165e-17    1.27788039015e-17    
1.35658336833e-17    1.78057372666e-17    1.63161045836e-17    3.64146701357e-17    2.69824960271e-17    
1.63563026886e-17    2.73901183081e-17    3.43613038478e-17    2.00249584615e-17    5.55695018413e-18    

0.855094001407    0.771976766478    0.765997908194    0.765736105986    0.765727196503    
0.765727196899    0.76573610663    0.765997912049    0.771976761324    0.85509401907    
0.771983908859    1.00512171489    1.00341010093    1.00276465934    1.00273156114    
1.00273156173    1.00276466044    1.00341010185    1.00512171029    0.77198389222    
0.765998268727    1.00341010124    1.0014323935    1.0007564013    1.00072205679    
1.00072205698    1.0007564009    1.00143239295    1.0034101053    0.765998262902    
0.765736118586    1.00276465937    1.00075640108    1.00007905628    1.00004467391    
1.00004467417    1.00007905666    1.00075639908    1.00276466109    0.765736108224    
0.765727197073    1.00273156156    1.00072205737    1.00004467473    1.00001029158    
1.00001029157    1.00004467454    1.00072205643    1.0027315632    0.765727189533    
0.765727197102    1.00273156181    1.00072205696    1.00004467429    1.00001029095    
1.00001029146    1.00004467448    1.00072205617    1.00273156239    0.765727186222    
0.765736119139    1.00276466049    1.00075640145    1.00007905705    1.00004467444    
1.00004467456    1.00007905665    1.0007564007    1.00276466086    0.765736110699    
0.765998270491    1.00341010301    1.00143239293    1.00075639994    1.00072205538    
1.00072205594    1.00075640002    1.00143239148    1.00341010071    0.765998246135    
0.771983905794    1.00512171142    1.0034101023    1.00276466079    1.00273156334    
1.00273156264    1.00276466099    1.0034101007    1.00512171691    0.771983908017    
0.855094021177    0.771976755126    0.765997903672    0.765736102044    0.765727190812    
0.765727192442    0.765736099597    0.765997891803    0.77197676509    0.855094001191    

1.70972846649    1.53385483348    1.5212568824    1.520698272    1.52067889067    
1.52067889152    1.52069827337    1.52125689044    1.53385482162    1.70972850177    
1.53386923088    1.08799459309    1.04720979677    1.04506934298    1.04498685658    
1.04498686566    1.04506935388    1.04720981605    1.0879945475    1.5338691954    
1.52125762828    1.04720980122    1.00467182992    1.00246843872    1.00238443056    
1.00238443113    1.00246843781    1.00467180776    1.04720984182    1.52125761676    
1.52069829887    1.0450693434    1.0024684382    1.0002635404    1.00017953065    
1.0001795317    1.00026355591    1.00246840937    1.04506936618    1.52069827767    
1.52067889192    1.04498686532    1.00238443977    1.00017954044    1.00009552465    
1.00009552474    1.00017954    1.00238441766    1.04498688284    1.52067887644    
1.52067889199    1.04498686596    1.00238443127    1.00017953186    1.00009551562    
1.00009552447    1.00017953976    1.00238441462    1.04498687828    1.52067886967    
1.52069830005    1.0450693543    1.00246844661    1.00026355714    1.00017953941    
1.00017953997    1.00026355597    1.00246842511    1.0450693677    1.52069828266    
1.52125763237    1.04720982666    1.00467180926    1.0024684153    1.00238440705    
1.00238441383    1.00246842086    1.0046717879    1.04720979643    1.52125758125    
1.53386922333    1.08799455393    1.04720982087    1.04506936534    1.04498688406    
1.04498687902    1.04506936893    1.04720979545    1.08799462553    1.53386922928    
1.70972850601    1.53385480885    1.52125687318    1.52069826394    1.52067887904    
1.52067888236    1.52069825888    1.52125684776    1.53385483081    1.70972846605    

3.94435178267e-07    3.92429553098e-07    3.92279496985e-07    3.92271415842e-07    3.922710632e-07    
3.92271063213e-07    3.92271415861e-07    3.92279497066e-07    3.92429552764e-07    3.94435178261e-07    
3.92429595805e-07    2.39942084806e-07    2.32951556529e-07    2.32687049977e-07    2.32678394405e-07    
2.3267839593e-07    2.32687051737e-07    2.32951559832e-07    2.39942077552e-07    3.92429595302e-07    
3.92279503224e-07    2.32951557274e-07    2.2561708291e-07    2.25339419254e-07    2.25330387065e-07    
2.25330387135e-07    2.25339419159e-07    2.2561707898e-07    2.32951563827e-07    3.92279503234e-07    
3.92271416227e-07    2.32687050048e-07    2.25339419197e-07    2.25061271711e-07    2.25052227844e-07    
2.25052227988e-07    2.25061274469e-07    2.25339414316e-07    2.32687053833e-07    3.92271416098e-07    
3.92271063226e-07    2.326783959e-07    2.25330388636e-07    2.2505222948e-07    2.25043183946e-07    
2.25043183965e-07    2.25052229436e-07    2.25330384783e-07    2.32678398753e-07    3.9227106312e-07    
3.92271063226e-07    2.32678395968e-07    2.25330387163e-07    2.25052227997e-07    2.25043182416e-07    
2.25043183936e-07    2.25052229401e-07    2.25330384276e-07    2.32678398081e-07    3.92271063079e-07    
3.92271416246e-07    2.32687051803e-07    2.25339420662e-07    2.25061274621e-07    2.25052229345e-07    
2.25052229424e-07    2.25061274481e-07    2.25339416884e-07    2.3268705415e-07    3.92271416114e-07    
3.92279503347e-07    2.32951561524e-07    2.25617079257e-07    2.25339415237e-07    2.25330383043e-07    
2.25330384173e-07    2.25339416234e-07    2.25617075638e-07    2.32951556509e-07    3.92279502774e-07    
3.92429595502e-07    2.39942078481e-07    2.32951560616e-07    2.32687053737e-07    2.32678398946e-07    
2.32678398168e-07    2.32687054348e-07    2.32951556335e-07    2.3994209021e-07    3.9242959582e-07    
3.94435178265e-07    3.92429552669e-07    3.92279496936e-07    3.92271415794e-07    3.9227106313e-07    
3.92271063149e-07    3.92271415752e-07    3.9227949655e-07    3.92429553117e-07    3.94435178266e-07    

1.9994625897    1.98691838936    1.98598046564    1.98592995696    1.98592775288    
1.98592775296    1.98592995708    1.98598046615    1.98691838727    1.99946258966    
1.98691865631    1.08245058979    1.04365084206    1.04218804806    1.04214018695    
1.04214019539    1.04218805779    1.04365086033    1.08245054939    1.98691865317    
1.98598050464    1.04365084618    1.0032348029    1.00171074342    1.0016611743    
1.00166117469    1.00171074289    1.00323478133    1.04365088242    1.9859805047    
1.98592995936    1.04218804845    1.00171074311    1.00018446953    1.00013485071    
1.0001348515    1.00018448466    1.00171071631    1.04218806938    1.98592995855    
1.98592775304    1.04214019522    1.00166118293    1.00013485969    1.00008523219    
1.00008523229    1.00013485944    1.00166116178    1.04214021099    1.98592775238    
1.98592775305    1.04214019559    1.00166117485    1.00013485155    1.00008522379    
1.00008523213    1.00013485925    1.001661159    1.04214020728    1.98592775212    
1.98592995948    1.04218805816    1.00171075114    1.0001844855    1.00013485895    
1.00013485938    1.00018448473    1.00171073041    1.04218807113    1.98592995866    
1.9859805054    1.04365086968    1.00323478285    1.00171072137    1.00166115223    
1.00166115843    1.00171072684    1.00323476298    1.04365084195    1.98598050182    
1.98691865441    1.08245055456    1.04365086466    1.04218806884    1.04214021206    
1.04214020775    1.04218807222    1.04365084098    1.08245061989    1.9869186564    
1.99946258968    1.98691838668    1.98598046534    1.98592995666    1.98592775245    
1.98592775256    1.98592995639    1.98598046293    1.98691838948    1.99946258969    

1209.05430665    1090.22681666    1081.68611066    1081.31118758    1081.29837831    
1081.29837888    1081.3111885    1081.68611616    1090.22680916    1209.05433162    
1090.23693134    1264.77891223    1253.89851105    1252.75804732    1252.70576682    
1252.70576949    1252.75805092    1253.89851636    1264.77889747    1090.23690751    
1081.68662382    1253.89851237    1242.07137289    1240.87445614    1240.82020454    
1240.82020486    1240.87445553    1242.07136713    1253.89852571    1081.6866156    
1081.31120562    1252.75804745    1240.8744558    1239.67538353    1239.62107911    
1239.62107962    1239.67538756    1240.874447    1252.75805438    1081.31119091    
1081.29837913    1252.70576924    1240.82020728    1239.62108224    1239.56677514    
1239.56677515    1239.62108194    1240.82020113    1252.70577489    1081.29836841    
1081.29837917    1252.70576964    1240.82020487    1239.62107978    1239.56677238    
1239.56677499    1239.62108183    1240.82020016    1252.70577303    1081.29836371    
1081.31120642    1252.75805107    1240.87445815    1239.67538825    1239.62108171    
1239.62108196    1239.67538757    1240.87445233    1252.7580545    1081.31119441    
1081.68662639    1253.89851995    1242.07136746    1240.87444927    1240.82019759    
1240.82019975    1240.87445066    1242.07136098    1253.89851074    1081.68659162    
1090.23692681    1264.77890005    1253.89851791    1252.75805389    1252.70577531    
1252.70577346    1252.75805491    1253.89851051    1264.77892146    1090.23693016    
1209.0543346    1090.22680035    1081.68610424    1081.31118198    1081.29837023    
1081.29837254    1081.3111785    1081.68608723    1090.22681471    1209.05430635    

2     4     3     1     4     2     5     6     6     5     7     8     8     7     9     10     10     9     11     12     12     11     13     14     14     13     15     16     16     15     17     18     18     17     19     20     20     19     21     22     3     4     24     23     4     6     25     24     6     8     26     25     8     10     27     26     10     12     28     27     12     14     29     28     14     16     30     29     16     18     31     30     18     20     32     31     20     22     33     32     23     24     35     34     24     25     36     35     25     26     37     36     26     27     38     37     27     28     39     38     28     29     40     39     29     30     41     40     30     31     42     41     31     32     43     42     32     33     44     43     34     35     46     45     35     36     47     46     36     37     48     47     37     38     49     48     38     39     50     49     39     40     51     50     40     41     52     51     41     42     53     52     42     43     54     53     43     44     55     54     45     46     57     56     46     47     58     57     47     48     59     58     48     49     60     59     49     50     61     60     50     51     62     61     51     52     63     62     52     53     64     63     53     54     65     64     54     55     66     65     56     57     68     67     57     58     69     68     58     59     70     69     59     60     71     70     60     61     72     71     61     62     73     72     62     63     74     73     63     64     75     74     64     65     76     75     65     66     77     76     67     68     79     78     68     69     80     79     69     70     81     80     70     71     82     81     71     72     83     82     72     73     84     83     73     74     85     84     74     75     86     85     75     76     87     86     76     77     88     87     78     79     90     89     79     80     91     90     80     81     92     91     81     82     93     92     82     83     94     93     83     84     95     94     84     85     96     95     85     86     97     96     86     87     98     97     87     88     99     98     89     90     101     100     90     91     102     101     91     92     103     102     92     93     104     103     93     94     105     104     94     95     106     105     95     96     107     106     96     97     108     107     97     98     109     108     98     99     110     109     100     101     111     112     101     102     113     111     102     103     114     113     103     104     115     114     104     105     116     115     105     106     117     116     106     107     118     117     107     108     119     118     108     109     120     119     109     110     121     120     

