Title = " tecplot out file" 
variables = "x", "y", "z", "velX", "velY", "velZ","density","pressure","viscosity","temperature", "collisionFrequency",
Zone T = "nmesh0" N = 121 E = 100 DATAPACKING = BLOCK, VARLOCATION = ([4-11]=CELLCENTERED),  ZONETYPE=FEQUADRILATERAL 
0.0    
0.0    
0.1    
0.1    
0.0    

0.1    
0.0    
0.1    
0.0    
0.1    

0.0    
0.1    
0.0    
0.1    
0.0    

0.1    
0.0    
0.1    
0.0    
0.1    

0.0    
0.1    
0.2    
0.2    
0.2    

0.2    
0.2    
0.2    
0.2    
0.2    

0.2    
0.2    
0.2    
0.3    
0.3    

0.3    
0.3    
0.3    
0.3    
0.3    

0.3    
0.3    
0.3    
0.3    
0.4    

0.4    
0.4    
0.4    
0.4    
0.4    

0.4    
0.4    
0.4    
0.4    
0.4    

0.5    
0.5    
0.5    
0.5    
0.5    

0.5    
0.5    
0.5    
0.5    
0.5    

0.5    
0.6    
0.6    
0.6    
0.6    

0.6    
0.6    
0.6    
0.6    
0.6    

0.6    
0.6    
0.7    
0.7    
0.7    

0.7    
0.7    
0.7    
0.7    
0.7    

0.7    
0.7    
0.7    
0.8    
0.8    

0.8    
0.8    
0.8    
0.8    
0.8    

0.8    
0.8    
0.8    
0.8    
0.9    

0.9    
0.9    
0.9    
0.9    
0.9    

0.9    
0.9    
0.9    
0.9    
0.9    

1.0    
1.0    
1.0    
1.0    
1.0    

1.0    
1.0    
1.0    
1.0    
1.0    

1.0    
1.0    
0.9    
1.0    
0.9    
0.8    

0.8    
0.7    
0.7    
0.6    
0.6    

0.5    
0.5    
0.4    
0.4    
0.3    

0.3    
0.2    
0.2    
0.1    
0.1    

0.0    
0.0    
1.0    
0.9    
0.8    

0.7    
0.6    
0.5    
0.4    
0.3    

0.2    
0.1    
0.0    
1.0    
0.9    

0.8    
0.7    
0.6    
0.5    
0.4    

0.3    
0.2    
0.1    
0.0    
1.0    

0.9    
0.8    
0.7    
0.6    
0.5    

0.4    
0.3    
0.2    
0.1    
0.0    

1.0    
0.9    
0.8    
0.7    
0.6    

0.5    
0.4    
0.3    
0.2    
0.1    

0.0    
1.0    
0.9    
0.8    
0.7    

0.6    
0.5    
0.4    
0.3    
0.2    

0.1    
0.0    
1.0    
0.9    
0.8    

0.7    
0.6    
0.5    
0.4    
0.3    

0.2    
0.1    
0.0    
1.0    
0.9    

0.8    
0.7    
0.6    
0.5    
0.4    

0.3    
0.2    
0.1    
0.0    
1.0    

0.9    
0.8    
0.7    
0.6    
0.5    

0.4    
0.3    
0.2    
0.1    
0.0    

0.9    
1.0    
0.8    
0.7    
0.6    

0.5    
0.4    
0.3    
0.2    
0.1    

0.0    
0.0    0.0    0.0    0.0    0.0    
0.0    0.0    0.0    0.0    0.0    
0.0    0.0    0.0    0.0    0.0    
0.0    0.0    0.0    0.0    0.0    
0.0    0.0    0.0    0.0    0.0    
0.0    0.0    0.0    0.0    0.0    
0.0    0.0    0.0    0.0    0.0    
0.0    0.0    0.0    0.0    0.0    
0.0    0.0    0.0    0.0    0.0    
0.0    0.0    0.0    0.0    0.0    
0.0    0.0    0.0    0.0    0.0    
0.0    0.0    0.0    0.0    0.0    
0.0    0.0    0.0    0.0    0.0    
0.0    0.0    0.0    0.0    0.0    
0.0    0.0    0.0    0.0    0.0    
0.0    0.0    0.0    0.0    0.0    
0.0    0.0    0.0    0.0    0.0    
0.0    0.0    0.0    0.0    0.0    
0.0    0.0    0.0    0.0    0.0    
0.0    0.0    0.0    0.0    0.0    
0.0    0.0    0.0    0.0    0.0    
0.0    0.0    0.0    0.0    0.0    
0.0    0.0    0.0    0.0    0.0    
0.0    0.0    0.0    0.0    0.0    
0.0    
0.00349549587923    0.0239201352781    0.0243779677528    0.0243858235704    0.0243859410737    
0.0243859410563    0.0243858235492    0.0243779674281    0.0239201361025    0.00349549475882    
0.000837380391489    0.0058247349509    0.00592075991986    0.0059224217862    0.00592244505766    
0.0059224439827    0.00592242072925    0.00592076101221    0.00582472764291    0.000837376980972    
2.74512023983e-05    0.000165457798533    0.000167801564468    0.00016784091153    0.000167841441933    
0.000167841422941    0.000167840753465    0.00016779508171    0.000165472405221    2.74493837219e-05    
5.76630261876e-07    2.90946486346e-06    2.95130172874e-06    2.94959979599e-06    2.9518374657e-06    
2.94852070811e-06    2.95060679479e-06    2.94188059943e-06    2.9182852997e-06    5.75226624437e-07    
1.0866586562e-08    3.81981061881e-08    4.06144472482e-08    4.04104798199e-08    4.04964932382e-08    
4.03771791877e-08    4.03620282919e-08    3.51773225781e-08    4.38113468e-08    9.14174906628e-09    
-7.97868706391e-09    -4.17714596392e-08    -3.92899268638e-08    -3.93974345108e-08    -3.94043082772e-08    
-4.04860609839e-08    -4.06103287481e-08    -4.49651066211e-08    -3.55273638357e-08    -9.40433176552e-09    
-5.73762717081e-07    -2.91553996264e-06    -2.94989310222e-06    -2.95064266327e-06    -2.95065621243e-06    
-2.95067058218e-06    -2.95076624494e-06    -2.95517227219e-06    -2.90954845529e-06    -5.75375055491e-07    
-2.74482243777e-05    -0.000165470147118    -0.000167797137436    -0.000167836652052    -0.00016783720524    
-0.000167837943212    -0.000167837517932    -0.000167802406812    -0.000165451545437    -2.74471705804e-05    
-0.0008373745792    -0.00582472681493    -0.00592075877868    -0.00592242308243    -0.00592244413006    
-0.00592244635127    -0.00592242093925    -0.00592076588739    -0.00582473376183    -0.000837379675356    
-0.00349549482186    -0.0239201372003    -0.0243779688759    -0.0243858244037    -0.0243859422374    
-0.0243859419097    -0.0243858247813    -0.0243779706019    -0.0239201356512    -0.00349549588123    

-0.0034423248573    -0.000835892973145    -2.73929025988e-05    -5.754670457e-07    -1.08683525637e-08    
7.92276628525e-09    5.7253481676e-07    2.73894546806e-05    0.000835886882073    0.00344232393346    
-0.0239196010446    -0.00582481365349    -0.000165458524945    -2.9093600616e-06    -3.58100498236e-08    
4.1888654574e-08    2.91553139312e-06    0.000165470025557    0.00582480478221    0.0239196038212    
-0.0243779562952    -0.00592076116031    -0.000167805010498    -2.95147449688e-06    -4.17365283108e-08    
3.92103533922e-08    2.94869844025e-06    0.000167794702149    0.00592076332564    0.0243779576201    
-0.0243858233928    -0.00592242167976    -0.000167840922416    -2.94948606636e-06    -3.81043076409e-08    
3.95176325145e-08    2.95054105283e-06    0.000167835747652    0.00592242310572    0.0243858252896    
-0.0243859410601    -0.00592244388819    -0.000167843808078    -2.95094210415e-06    -4.05517646421e-08    
4.03926323995e-08    2.9505471969e-06    0.000167836228282    0.00592244460634    0.0243859424354    
-0.0243859410596    -0.00592244387638    -0.000167841409252    -2.94842396601e-06    -3.80475299914e-08    
4.05892102619e-08    2.95062760771e-06    0.000167837919449    0.00592244628984    0.0243859429771    
-0.0243858233728    -0.00592242068083    -0.000167843177954    -2.95081652995e-06    -4.04585459056e-08    
4.05189174778e-08    2.9506420635e-06    0.000167835823272    0.00592242144164    0.0243858247979    
-0.0243779562411    -0.00592076445977    -0.000167797939973    -2.94408995906e-06    -3.4343470112e-08    
4.49966454731e-08    2.95443531461e-06    0.000167802382539    0.00592076679278    0.0243779602129    
-0.0239196015735    -0.00582480860934    -0.000165466107458    -2.91810635687e-06    -4.36093937569e-08    
3.54910446016e-08    2.909747282e-06    0.000165451491773    0.00582481296095    0.0239196013317    
-0.00344232371639    -0.00083588848413    -2.7391179312e-05    -5.73431015152e-07    -9.00847608424e-09    
9.98785119064e-09    5.74296614295e-07    2.73896820564e-05    0.000835891819543    0.00344232485929    

2.86475435303e-17    3.34739625575e-17    1.82093450419e-17    2.66221962816e-17    2.35443517801e-17    
3.28363655039e-17    3.42874169735e-17    3.74264001115e-17    4.57798231971e-17    2.15062525518e-17    
1.65377296981e-17    3.58199170868e-17    3.32205166591e-17    3.81927868765e-17    2.97136422424e-17    
3.48354969287e-17    2.34493922806e-17    3.14037691067e-17    3.73326849691e-17    4.51246454586e-17    
2.31111843632e-17    3.71291881472e-17    3.72501611684e-17    3.46063843819e-17    5.2673995544e-17    
3.88143626345e-17    2.72190744498e-17    4.47977241108e-17    4.18437435079e-17    2.93468928241e-17    
2.1563808825e-17    4.47620526152e-17    5.46544668562e-17    1.86500919743e-17    5.39868174598e-17    
3.98185679896e-17    4.56028162365e-17    3.30161194689e-17    4.01674191839e-17    1.79035640356e-17    
1.63157603588e-17    3.09233579454e-17    4.98698555319e-17    2.18443531599e-17    2.12218768319e-17    
3.39065983447e-17    3.91944048578e-17    1.66009966427e-17    3.46816215201e-17    3.91824026675e-17    
2.76599432546e-17    5.25885423816e-17    5.86755500009e-17    4.21240775635e-17    3.04373491892e-17    
3.76576807413e-17    3.1730800907e-17    2.73958875874e-17    4.42532622723e-17    3.43174241746e-17    
2.073593987e-17    1.63010290126e-17    2.62997287649e-17    2.50231427101e-17    3.10023227217e-17    
2.91895983394e-17    4.83306047004e-17    4.3075001228e-17    3.29446365902e-17    2.50779800745e-17    
1.03094361747e-17    3.33644623823e-17    1.81012814694e-17    2.80445760209e-17    4.17891197217e-17    
1.73207863832e-17    3.41067881957e-17    3.22955677961e-17    3.95514491087e-17    2.97176279874e-17    
9.84304934265e-18    3.3109021292e-17    4.67461656539e-17    2.25928996523e-17    4.13674937076e-17    
2.62960821293e-17    5.65761264514e-17    5.29433187456e-17    5.32270202723e-17    3.27922887481e-17    
1.80595181359e-17    2.68592982498e-17    1.90844272614e-17    1.84227745885e-17    2.06989382692e-17    
3.46706705878e-17    4.08454577803e-17    7.53155059433e-18    2.4798124395e-17    3.48966851908e-17    

0.872961748361    0.814684550972    0.81218801685    0.812133147892    0.812132237761    
0.812132237837    0.812133148003    0.812188019083    0.814684549072    0.872961764478    
0.81469172275    1.00374796948    1.0019959865    1.00189932602    1.00189748349    
1.00189748408    1.00189932676    1.00199598892    1.00374796421    0.814691712716    
0.812188154251    1.00199598669    1.00020213747    1.00010409647    1.00010223115    
1.00010223119    1.00010409637    1.00020213631    1.00199599142    0.812188148597    
0.812133149881    1.00189932602    1.00010409637    1.00000602894    1.00000416375    
1.00000416384    1.00000602992    1.0001040944    1.00189932732    0.812133142178    
0.812132237769    1.00189748402    1.00010223171    1.00000416442    1.00000229878    
1.00000229877    1.00000416438    1.00010223096    1.00189748539    0.81213223247    
0.812132237771    1.00189748407    1.00010223113    1.00000416384    1.00000229815    
1.00000229873    1.00000416434    1.00010223036    1.00189748466    0.812132229987    
0.812133149963    1.00189932674    1.00010409692    1.00000603003    1.00000416435    
1.00000416438    1.00000602994    1.00010409624    1.00189932779    0.812133144417    
0.812188153894    1.00199598992    1.00020213638    1.00010409523    1.0001022299    
1.0001022303    1.00010409553    1.0002021353    1.0019959864    0.812188138522    
0.814691722742    1.00374796509    1.00199598855    1.00189932724    1.00189748562    
1.00189748472    1.00189932801    1.00199598647    1.00374797119    0.814691721624    
0.872961765908    0.814684544536    0.812188012982    0.812133145051    0.812132233392    
0.812132234896    0.812133143305    0.812188006842    0.814684548907    0.872961748347    

1.73225093005    1.54973299063    1.54323897937    1.54309711899    1.54309468985    
1.54309469004    1.54309711926    1.54323898498    1.54973298208    1.7322509658    
1.54974871386    1.03487394488    1.01793939716    1.01758355578    1.01757781019    
1.01757781765    1.01758356392    1.01793941869    1.0348739011    1.54974868396    
1.54323930038    1.01793939769    1.00076512812    1.00040537347    1.00039957499    
1.00039957513    1.00040537306    1.00076510855    1.01793943529    1.54323928555    
1.54309712395    1.01758355582    1.0004053731    1.00004555336    1.0000397612    
1.00003976155    1.00004556747    1.00040534914    1.01758357399    1.54309710377    
1.54309468989    1.01757781747    1.00039958239    1.00003976899    1.00003396993    
1.00003396988    1.00003976879    1.00039956496    1.01757783192    1.54309467565    
1.5430946899    1.01757781769    1.00039957498    1.00003976155    1.00003396232    
1.00003396973    1.00003976864    1.00039956143    1.01757782791    1.5430946695    
1.54309712416    1.01758356387    1.00040538038    1.00004556792    1.00003976866    
1.00003976878    1.00004556747    1.00040536319    1.01758357694    1.54309710924    
1.5432392998    1.01793942463    1.00076510992    1.00040535452    1.00039955604    
1.0003995612    1.00040535928    1.00076509346    1.01793939416    1.54323925724    
1.54974871025    1.03487390654    1.01793941953    1.01758357369    1.01757783318    
1.01757782809    1.01758357824    1.01793939624    1.03487397133    1.54974870995    
1.73225096893    1.54973296947    1.54323896849    1.54309711087    1.54309467793    
1.54309468167    1.54309710646    1.54323894997    1.54973298436    1.73225093001    

3.92016646546e-07    3.78828351513e-07    3.78481741641e-07    3.78474270976e-07    3.78474131939e-07    
3.78474131948e-07    3.78474270989e-07    3.78481741913e-07    3.78828350535e-07    3.92016647238e-07    
3.78828763498e-07    2.30663420713e-07    2.27923546765e-07    2.27876813863e-07    2.27876111113e-07    
2.27876112359e-07    2.27876815202e-07    2.27923550225e-07    2.3066341379e-07    3.78828761356e-07    
3.78481753548e-07    2.27923546828e-07    2.25130240028e-07    2.2508255579e-07    2.25081839101e-07    
2.25081839119e-07    2.25082555734e-07    2.25130236672e-07    2.27923552774e-07    3.78481752735e-07    
3.7847427121e-07    2.2787681387e-07    2.25082555741e-07    2.25034852736e-07    2.2503413698e-07    
2.25034137028e-07    2.2503485513e-07    2.25082551732e-07    2.27876816926e-07    3.78474270109e-07    
3.78474131945e-07    2.27876112336e-07    2.25081840348e-07    2.25034138278e-07    2.25033421343e-07    
2.25033421335e-07    2.2503413825e-07    2.25081837306e-07    2.27876114704e-07    3.78474131116e-07    
3.78474131945e-07    2.27876112365e-07    2.25081839101e-07    2.25034137029e-07    2.25033420069e-07    
2.25033421316e-07    2.2503413823e-07    2.25081836773e-07    2.27876114113e-07    3.78474130832e-07    
3.78474271222e-07    2.27876815197e-07    2.25082556966e-07    2.25034855191e-07    2.2503413823e-07    
2.25034138248e-07    2.25034855128e-07    2.2508255396e-07    2.27876817375e-07    3.78474270351e-07    
3.78481753568e-07    2.27923551117e-07    2.25130236909e-07    2.25082552562e-07    2.25081835873e-07    
2.25081836741e-07    2.25082553376e-07    2.25130234108e-07    2.27923546239e-07    3.78481750914e-07    
3.78828762786e-07    2.30663414609e-07    2.27923550445e-07    2.27876816887e-07    2.27876114892e-07    
2.27876114134e-07    2.27876817569e-07    2.27923546605e-07    2.30663425169e-07    3.78828763148e-07    
3.9201664729e-07    3.78828349748e-07    3.78481740939e-07    3.78474270435e-07    3.7847413122e-07    
3.78474131395e-07    3.78474270218e-07    3.78481739579e-07    3.78828351048e-07    3.92016646544e-07    

1.98433772533    1.90224914512    1.90010065078    1.90005434823    1.90005348649    
1.90005348655    1.9000543483    1.90010065246    1.90224913906    1.98433772966    
1.90225169912    1.0310097518    1.01591165122    1.01565449677    1.01565062989    
1.01565063674    1.01565450414    1.01591167026    1.03100971359    1.90225168584    
1.90010072457    1.01591165156    1.00056287687    1.00030124564    1.00029731345    
1.00029731355    1.00030124533    1.00056285846    1.01591168428    1.90010071954    
1.90005434968    1.01565449681    1.00030124537    1.00003952418    1.0000355973    
1.00003559756    1.00003953731    1.00030122338    1.01565451363    1.90005434285    
1.90005348652    1.01565063662    1.00029732029    1.00003560442    1.00003167108    
1.00003167104    1.00003560427    1.0002973036    1.01565064965    1.90005348138    
1.90005348652    1.01565063678    1.00029731345    1.00003559757    1.00003166409    
1.00003167093    1.00003560416    1.00029730068    1.01565064639    1.90005347962    
1.90005434975    1.01565450411    1.00030125209    1.00003953765    1.00003560416    
1.00003560425    1.0000395373    1.0003012356    1.0156545161    1.90005434435    
1.9001007247    1.01591167516    1.00056285976    1.00030122793    1.00029729574    
1.0002973005    1.0003012324    1.00056284439    1.01591164832    1.90010070825    
1.90225169471    1.03100971811    1.01591167147    1.01565451341    1.01565065068    
1.01565064651    1.01565451717    1.01591165034    1.03100977638    1.90225169695    
1.98433772999    1.90224913418    1.90010064643    1.90005434487    1.90005348203    
1.90005348312    1.90005434353    1.900100638    1.90224914224    1.98433772532    

1232.53880337    1141.06060358    1137.31968903    1137.23758966    1137.2362172    
1137.23621732    1137.23758983    1137.31969235    1141.06060023    1232.53882663    
1141.07093958    1251.4198268    1245.73892711    1245.5588402    1245.55564856    
1245.55565089    1245.55884285    1245.73893455    1251.41981143    1141.07092401    
1137.31988983    1245.73892742    1239.91706249    1239.73392235    1239.73068413    
1239.73068421    1239.73392214    1239.91705672    1245.73894093    1137.31988134    
1137.23759261    1245.55884021    1239.73392215    1239.55072709    1239.54749031    
1239.54749047    1239.55073139    1239.73391454    1245.55884575    1137.23758105    
1137.23621722    1245.55565079    1239.73068644    1239.54749281    1239.54425395    
1239.54425393    1239.54749272    1239.73068159    1245.55565553    1137.23620921    
1137.23621722    1245.55565089    1239.73068412    1239.54749048    1239.54425152    
1239.54425385    1239.54749265    1239.73068015    1245.55565386    1137.23620554    
1137.23759274    1245.55884281    1239.73392443    1239.55073162    1239.54749267    
1239.54749272    1239.55073141    1239.73391969    1245.55884691    1137.23758436    
1137.31988934    1245.73893694    1239.91705711    1239.73391664    1239.73067842    
1239.73068004    1239.73391806    1239.91705215    1245.73892631    1137.31986594    
1141.07093906    1251.41981356    1245.73893437    1245.5588456    1245.55565605    
1245.55565396    1245.55884744    1245.73892686    1251.41983461    1141.07093775    
1232.53882869    1141.06059332    1137.31968312    1137.2375853    1137.23621058    
1137.23621281    1137.23758271    1137.31967356    1141.06060036    1232.53880334    

2     4     3     1     4     2     5     6     6     5     7     8     8     7     9     10     10     9     11     12     12     11     13     14     14     13     15     16     16     15     17     18     18     17     19     20     20     19     21     22     3     4     24     23     4     6     25     24     6     8     26     25     8     10     27     26     10     12     28     27     12     14     29     28     14     16     30     29     16     18     31     30     18     20     32     31     20     22     33     32     23     24     35     34     24     25     36     35     25     26     37     36     26     27     38     37     27     28     39     38     28     29     40     39     29     30     41     40     30     31     42     41     31     32     43     42     32     33     44     43     34     35     46     45     35     36     47     46     36     37     48     47     37     38     49     48     38     39     50     49     39     40     51     50     40     41     52     51     41     42     53     52     42     43     54     53     43     44     55     54     45     46     57     56     46     47     58     57     47     48     59     58     48     49     60     59     49     50     61     60     50     51     62     61     51     52     63     62     52     53     64     63     53     54     65     64     54     55     66     65     56     57     68     67     57     58     69     68     58     59     70     69     59     60     71     70     60     61     72     71     61     62     73     72     62     63     74     73     63     64     75     74     64     65     76     75     65     66     77     76     67     68     79     78     68     69     80     79     69     70     81     80     70     71     82     81     71     72     83     82     72     73     84     83     73     74     85     84     74     75     86     85     75     76     87     86     76     77     88     87     78     79     90     89     79     80     91     90     80     81     92     91     81     82     93     92     82     83     94     93     83     84     95     94     84     85     96     95     85     86     97     96     86     87     98     97     87     88     99     98     89     90     101     100     90     91     102     101     91     92     103     102     92     93     104     103     93     94     105     104     94     95     106     105     95     96     107     106     96     97     108     107     97     98     109     108     98     99     110     109     100     101     111     112     101     102     113     111     102     103     114     113     103     104     115     114     104     105     116     115     105     106     117     116     106     107     118     117     107     108     119     118     108     109     120     119     109     110     121     120     

