Title = " tecplot out file" 
variables = "x", "y", "z", "velX", "velY", "velZ","density","pressure","viscosity","temperature", "collisionFrequency",
Zone T = "nmesh0" N = 121 E = 100 DATAPACKING = BLOCK, VARLOCATION = ([4-11]=CELLCENTERED),  ZONETYPE=FEQUADRILATERAL 
0.0    
0.0    
0.1    
0.1    
0.0    

0.1    
0.0    
0.1    
0.0    
0.1    

0.0    
0.1    
0.0    
0.1    
0.0    

0.1    
0.0    
0.1    
0.0    
0.1    

0.0    
0.1    
0.2    
0.2    
0.2    

0.2    
0.2    
0.2    
0.2    
0.2    

0.2    
0.2    
0.2    
0.3    
0.3    

0.3    
0.3    
0.3    
0.3    
0.3    

0.3    
0.3    
0.3    
0.3    
0.4    

0.4    
0.4    
0.4    
0.4    
0.4    

0.4    
0.4    
0.4    
0.4    
0.4    

0.5    
0.5    
0.5    
0.5    
0.5    

0.5    
0.5    
0.5    
0.5    
0.5    

0.5    
0.6    
0.6    
0.6    
0.6    

0.6    
0.6    
0.6    
0.6    
0.6    

0.6    
0.6    
0.7    
0.7    
0.7    

0.7    
0.7    
0.7    
0.7    
0.7    

0.7    
0.7    
0.7    
0.8    
0.8    

0.8    
0.8    
0.8    
0.8    
0.8    

0.8    
0.8    
0.8    
0.8    
0.9    

0.9    
0.9    
0.9    
0.9    
0.9    

0.9    
0.9    
0.9    
0.9    
0.9    

1.0    
1.0    
1.0    
1.0    
1.0    

1.0    
1.0    
1.0    
1.0    
1.0    

1.0    
1.0    
0.9    
1.0    
0.9    
0.8    

0.8    
0.7    
0.7    
0.6    
0.6    

0.5    
0.5    
0.4    
0.4    
0.3    

0.3    
0.2    
0.2    
0.1    
0.1    

0.0    
0.0    
1.0    
0.9    
0.8    

0.7    
0.6    
0.5    
0.4    
0.3    

0.2    
0.1    
0.0    
1.0    
0.9    

0.8    
0.7    
0.6    
0.5    
0.4    

0.3    
0.2    
0.1    
0.0    
1.0    

0.9    
0.8    
0.7    
0.6    
0.5    

0.4    
0.3    
0.2    
0.1    
0.0    

1.0    
0.9    
0.8    
0.7    
0.6    

0.5    
0.4    
0.3    
0.2    
0.1    

0.0    
1.0    
0.9    
0.8    
0.7    

0.6    
0.5    
0.4    
0.3    
0.2    

0.1    
0.0    
1.0    
0.9    
0.8    

0.7    
0.6    
0.5    
0.4    
0.3    

0.2    
0.1    
0.0    
1.0    
0.9    

0.8    
0.7    
0.6    
0.5    
0.4    

0.3    
0.2    
0.1    
0.0    
1.0    

0.9    
0.8    
0.7    
0.6    
0.5    

0.4    
0.3    
0.2    
0.1    
0.0    

0.9    
1.0    
0.8    
0.7    
0.6    

0.5    
0.4    
0.3    
0.2    
0.1    

0.0    
0.0    0.0    0.0    0.0    0.0    
0.0    0.0    0.0    0.0    0.0    
0.0    0.0    0.0    0.0    0.0    
0.0    0.0    0.0    0.0    0.0    
0.0    0.0    0.0    0.0    0.0    
0.0    0.0    0.0    0.0    0.0    
0.0    0.0    0.0    0.0    0.0    
0.0    0.0    0.0    0.0    0.0    
0.0    0.0    0.0    0.0    0.0    
0.0    0.0    0.0    0.0    0.0    
0.0    0.0    0.0    0.0    0.0    
0.0    0.0    0.0    0.0    0.0    
0.0    0.0    0.0    0.0    0.0    
0.0    0.0    0.0    0.0    0.0    
0.0    0.0    0.0    0.0    0.0    
0.0    0.0    0.0    0.0    0.0    
0.0    0.0    0.0    0.0    0.0    
0.0    0.0    0.0    0.0    0.0    
0.0    0.0    0.0    0.0    0.0    
0.0    0.0    0.0    0.0    0.0    
0.0    0.0    0.0    0.0    0.0    
0.0    0.0    0.0    0.0    0.0    
0.0    0.0    0.0    0.0    0.0    
0.0    0.0    0.0    0.0    0.0    
0.0    
0.000175813878224    0.00423357459755    0.00447367528663    0.00448325598705    0.0044835767746    
0.00448357674633    0.00448325595078    0.00447367511833    0.00423357513551    0.000175813849158    
0.000654001011293    0.0121183911726    0.012619176027    0.0126377077797    0.0126382329319    
0.0126382316333    0.0126377064602    0.0126191761938    0.0121183843111    0.000654000233902    
4.60415485684e-05    0.000821964314713    0.000849029656692    0.000849931682602    0.000849954713139    
0.00084995466543    0.000849931285022    0.000849021987814    0.00082198087706    4.60418308057e-05    
1.94147671457e-06    3.11075398515e-05    3.19059910186e-05    3.19280578118e-05    3.19312336677e-05    
3.19273223905e-05    3.19289971911e-05    3.18940263345e-05    3.11190606053e-05    1.94139789476e-06    
6.17386175093e-08    8.54064829342e-07    8.73302076896e-07    8.73334329432e-07    8.73584053849e-07    
8.73239723259e-07    8.73232038051e-07    8.66112284032e-07    8.6157859464e-07    6.15597944227e-08    
-6.13758697687e-08    -8.58889471928e-07    -8.71512845977e-07    -8.72180062529e-07    -8.72212674316e-07    
-8.73532755962e-07    -8.73786123646e-07    -8.7883873381e-07    -8.50857120097e-07    -6.1515982659e-08    
-1.94116625459e-06    -3.11156650858e-05    -3.19039432397e-05    -3.19289485922e-05    -3.19295653383e-05    
-3.19296067999e-05    -3.19292447472e-05    -3.19106369115e-05    -3.11070820854e-05    -1.94122391156e-06    
-4.60416559293e-05    -0.000821977233289    -0.000849024122681    -0.000849926326859    -0.000849949442842    
-0.000849950449914    -0.000849927628092    -0.000849030922417    -0.000821956655315    -4.60408454475e-05    
-0.000653999840543    -0.0121183830603    -0.0126191746527    -0.0126377094072    -0.0126382321139    
-0.0126382345353    -0.0126377070946    -0.0126191834753    -0.0121183895293    -0.000654001223131    
-0.000175813836011    -0.00423357536895    -0.0044736754356    -0.00448325611677    -0.00448357695611    
-0.00448357690763    -0.00448325619863    -0.00447367612094    -0.00423357459439    -0.00017581388126    

-0.000175624893298    -0.000653905817314    -4.5993226277e-05    -1.93894578846e-06    -6.1663273657e-08    
6.12568256885e-08    1.93857467841e-06    4.59929517033e-05    0.000653904640983    0.000175624860727    
-0.00423347200131    -0.0121186437972    -0.000821970557814    -3.11074573428e-05    -8.51151296064e-07    
8.5919140828e-07    3.1115645564e-05    0.000821982384019    0.0121186348844    0.00423347294964    
-0.00447366760759    -0.0126191857276    -0.000849034072462    -3.19064548251e-05    -8.74653633052e-07    
8.71328179113e-07    3.19023662321e-05    0.000849021902316    0.0126191879255    0.00447366774403    
-0.00448325564452    -0.0126377077997    -0.000849931752559    -3.19278726119e-05    -8.70558879336e-07    
8.72493237916e-07    3.19286856687e-05    0.000849925232693    0.0126377095837    0.00448325599583    
-0.00448357673646    -0.0126382314406    -0.0008499575495    -3.19303636054e-05    -8.73608249186e-07    
8.73358305333e-07    3.19293779574e-05    0.000849948491421    0.012638232458    0.00448357700077    
-0.00448357673528    -0.0126382314389    -0.000849954680718    -3.19271769641e-05    -8.70421140925e-07    
8.73806976179e-07    3.19295240204e-05    0.000849950352313    0.012638234296    0.00448357712013    
-0.00448325560992    -0.0126377065943    -0.000849934314179    -3.192951155e-05    -8.73390042398e-07    
8.73616702604e-07    3.19290080444e-05    0.000849925715854    0.0126377077301    0.00448325591139    
-0.00447366747104    -0.0126191884467    -0.000849025536438    -3.189675548e-05    -8.64891343629e-07    
8.78923322204e-07    3.19098061198e-05    0.000849031041159    0.0126191925798    0.00447366861334    
-0.00423347245799    -0.0121186396673    -0.000821979443516    -3.11186382771e-05    -8.61382580134e-07    
8.50761365945e-07    3.11073233802e-05    0.000821961894054    0.0121186428001    0.00423347198884    
-0.000175624853577    -0.000653904952597    -4.59931637311e-05    -1.93873243407e-06    -6.14479331372e-08    
6.1520953733e-08    1.93867807813e-06    4.59923080025e-05    0.000653906006216    0.000175624896534    

1.73675393762e-17    3.92829194044e-17    2.5097883484e-17    5.58350282918e-17    4.05154786536e-17    
3.05124085282e-17    2.91249380166e-17    3.83815405662e-17    3.05614277672e-17    2.67777792303e-17    
9.38083549611e-18    4.10956495328e-17    3.5637846023e-17    3.80484913845e-17    5.6313163362e-17    
5.03343258841e-17    3.32726620989e-17    4.75930127365e-17    4.0221926309e-17    1.86127248282e-17    
2.42907346018e-17    4.70244765017e-17    5.01254703057e-17    3.12754315513e-17    4.4046769933e-17    
2.21921280997e-17    4.70068494025e-17    2.5234533957e-17    4.65596793964e-17    2.24887553354e-17    
2.6731540258e-17    4.24632221013e-17    4.73378759433e-17    3.65074606306e-17    3.60463141834e-17    
2.87913604361e-17    3.7251282886e-17    2.36968564587e-17    4.5083803876e-17    4.01102337316e-17    
3.65015138878e-17    3.74409281202e-17    1.92796582425e-17    4.72748244796e-17    4.34275746524e-17    
3.5736574109e-17    4.27463217685e-17    4.00206819672e-17    2.09571659441e-17    3.05305899705e-17    
2.57286723373e-17    2.58741720222e-17    2.6812045989e-17    3.70060526507e-17    4.21752225361e-17    
3.62986265336e-17    3.06509355652e-17    2.98470403115e-17    4.37705132969e-17    2.65683608971e-17    
1.14390878806e-17    2.4800411897e-17    3.09011425897e-17    2.83102373813e-17    2.15973021498e-17    
4.62269768615e-17    2.11114949601e-17    2.415594629e-17    4.6146298924e-17    3.32497635166e-17    
1.34249519215e-17    4.84514545699e-17    5.92345832135e-17    4.85853423783e-17    4.12580797131e-17    
1.20586745788e-17    4.13533860903e-17    9.78153711169e-18    4.10015107171e-17    2.57431574299e-17    
3.28877663213e-17    2.5226689408e-17    4.11292035039e-17    4.14537171414e-17    5.58232872406e-17    
1.96319217864e-17    3.73272186678e-17    3.62341400098e-17    2.23828301048e-17    4.02984416087e-17    
3.16425021961e-17    2.85636781878e-17    1.36297403e-17    3.30420694532e-17    2.35007399822e-17    
2.75756038749e-17    2.07532036374e-17    1.84702442582e-17    1.43578496504e-17    2.91400642788e-17    

0.85749741812    0.775575409138    0.77028220607    0.770073143864    0.770066701047    
0.770066701371    0.770073144379    0.770282209715    0.775575404513    0.85749743663    
0.775582712017    1.00508092071    1.00319277529    1.00269376635    1.00267159823    
1.00267159884    1.00269376741    1.00319277658    1.00508091585    0.775582695872    
0.770282528637    1.00319277572    1.00109276382    1.00057371166    1.00055083022    
1.00055083037    1.00057371133    1.00109276311    1.00319278007    0.770282522328    
0.770073153921    1.00269376638    1.00057371147    1.00005388176    1.00003098106    
1.00003098128    1.0000538823    1.0005737094    1.00269376805    0.770073143416    
0.770066701459    1.0026715987    1.00055083081    1.00003098186    1.00000808065    
1.00000808064    1.0000309817    1.00055082989    1.00267160033    0.770066693899    
0.77006670148    1.0026715989    1.00055083034    1.00003098137    1.00000808    
1.00000808055    1.00003098165    1.00055082953    1.00267159951    0.770066690565    
0.770073154355    1.00269376744    1.00057371189    1.00005388263    1.00003098162    
1.00003098172    1.0000538823    1.00057371114    1.002693768    0.770073146033    
0.770282529923    1.00319277789    1.0010927631    1.00057371028    1.0005508288    
1.00055082934    1.00057371043    1.00109276169    1.00319277525    0.770282506251    
0.775582709548    1.00508091695    1.00319277687    1.0026937678    1.0026716005    
1.00267159972    1.00269376816    1.00319277513    1.00508092275    0.77558271089    
0.857497438685    0.775575398237    0.770282201281    0.770073139842    0.770066695208    
0.770066696931    0.770073137416    0.770282190207    0.775575407353    0.857497417945    

1.71438536556    1.53850994248    1.52721488055    1.52676206568    1.5267477844    
1.5267477851    1.52676206679    1.52721488827    1.53850993141    1.71438540274    
1.53852475871    1.07747703468    1.0412112642    1.03954626725    1.03948990511    
1.03948991406    1.03954627783    1.04121128473    1.07747698801    1.53852472344    
1.52721555525    1.04121126778    1.0036111955    1.00190399045    1.00184670929    
1.00184670977    1.00190398962    1.0036111734    1.04121130898    1.52721554234    
1.52676208747    1.03954626757    1.00190398994    1.00019586041    1.00013857971    
1.00013858061    1.00019587605    1.00190396143    1.03954628994    1.5267620655    
1.52674778533    1.03948991375    1.00184671833    1.00013858929    1.00008130159    
1.00008130165    1.00013858891    1.00184669676    1.03948993114    1.52674776944    
1.52674778537    1.03948991429    1.00184670984    1.00013858074    1.00008129264    
1.00008130141    1.00013858868    1.00184669343    1.0394899265    1.52674776251    
1.52676208841    1.03954627812    1.00190399832    1.00019587712    1.00013858841    
1.00013858888    1.00019587609    1.00190397729    1.03954629193    1.52676207088    
1.52721555833    1.04121129446    1.00361117484    1.00190396741    1.0018466862    
1.00184669276    1.00190397294    1.00361115399    1.04121126316    1.52721550766    
1.53852475218    1.07747699439    1.04121128867    1.03954628923    1.03948993243    
1.03948992713    1.03954629326    1.04121126305    1.07747706688    1.53852475631    
1.71438540689    1.53850991814    1.52721487048    1.52676205721    1.52674777215    
1.52674777573    1.5267620521    1.52721484627    1.53850993874    1.7143853652    

3.94407479412e-07    3.9191480173e-07    3.91749643626e-07    3.91741680823e-07    3.91741367487e-07    
3.917413675e-07    3.91741680841e-07    3.91749643728e-07    3.91914801339e-07    3.94407479445e-07    
3.91914869719e-07    2.38069383221e-07    2.31910811884e-07    2.31703739953e-07    2.31697713497e-07    
2.31697714998e-07    2.31703741665e-07    2.31910815347e-07    2.380693758e-07    3.9191486905e-07    
3.91749650932e-07    2.3191081245e-07    2.25486078618e-07    2.25269952076e-07    2.25263692512e-07    
2.25263692571e-07    2.25269951986e-07    2.25486074726e-07    2.31910819068e-07    3.91749650849e-07    
3.91741681208e-07    2.31703740004e-07    2.25269952019e-07    2.25053525642e-07    2.25047260052e-07    
2.25047260176e-07    2.25053528394e-07    2.25269947203e-07    2.3170374373e-07    3.91741680971e-07    
3.9174136751e-07    2.31697714969e-07    2.2526369405e-07    2.25047261654e-07    2.25040994553e-07    
2.25040994565e-07    2.25047261612e-07    2.25263690289e-07    2.31697717804e-07    3.91741367324e-07    
3.91741367511e-07    2.31697715029e-07    2.25263692588e-07    2.25047260184e-07    2.25040993039e-07    
2.25040994537e-07    2.2504726158e-07    2.25263689749e-07    2.31697717121e-07    3.91741367257e-07    
3.91741681225e-07    2.31703741711e-07    2.25269953468e-07    2.25053528528e-07    2.25047261537e-07    
2.25047261602e-07    2.25053528402e-07    2.25269949775e-07    2.31703744099e-07    3.91741681011e-07    
3.91749651042e-07    2.31910816859e-07    2.25486074991e-07    2.25269948132e-07    2.25263688565e-07    
2.2526368966e-07    2.25269949111e-07    2.25486071453e-07    2.31910811706e-07    3.91749650266e-07    
3.91914869381e-07    2.3806937673e-07    2.31910816004e-07    2.31703743649e-07    2.31697718006e-07    
2.31697717194e-07    2.31703744309e-07    2.31910811707e-07    2.38069388592e-07    3.91914869684e-07    
3.94407479452e-07    3.9191480117e-07    3.91749643506e-07    3.9174168072e-07    3.91741367347e-07    
3.91741367382e-07    3.91741680659e-07    3.91749643038e-07    3.91914801691e-07    3.9440747941e-07    

1.99928924488    1.98370129371    1.98266929771    1.98261954445    1.98261758666    
1.98261758674    1.98261954456    1.98266929835    1.98370129127    1.99928924508    
1.98370171856    1.07203013457    1.03789749074    1.03675349557    1.03672020524    
1.03672021354    1.03675350503    1.03789750987    1.07203009332    1.98370171438    
1.98266934336    1.03789749386    1.00251568262    1.00132951603    1.00129516566    
1.00129516598    1.00132951553    1.00251566126    1.03789753042    1.98266934284    
1.98261954685    1.03675349586    1.00132951572    1.000141971    1.00010759532    
1.000107596    1.0001419861    1.00132948929    1.03675351644    1.98261954537    
1.98261758681    1.03672021338    1.0012951741    1.0001076041    1.00007322035    
1.00007322042    1.00010760387    1.00129515346    1.03672022904    1.98261758564    
1.98261758681    1.03672021371    1.00129516608    1.00010759604    1.00007321205    
1.00007322027    1.0001076037    1.00129515049    1.03672022526    1.98261758522    
1.98261954696    1.03675350528    1.00132952367    1.00014198683    1.00010760346    
1.00010760382    1.00014198614    1.0013295034    1.03675351847    1.98261954562    
1.98266934405    1.03789751822    1.00251566272    1.00132949438    1.001295144    
1.00129515001    1.00132949976    1.0025156433    1.03789748975    1.9826693392    
1.98370171645    1.07203009849    1.0378975135    1.03675351599    1.03672023015    
1.03672022566    1.03675351964    1.03789748976    1.07203016443    1.98370171834    
1.99928924513    1.98370129021    1.98266929696    1.98261954381    1.98261758579    
1.982617586    1.98261954342    1.98266929404    1.98370129346    1.99928924486    

1212.43262881    1094.97183404    1087.39127456    1087.09096262    1087.08166352    
1087.08166398    1087.09096336    1087.39127977    1094.97182726    1212.43265501    
1094.98218894    1262.40522238    1252.31092235    1251.42574814    1251.39044613    
1251.39044878    1251.42575164    1252.31092834    1262.40520705    1094.98216571    
1087.39173468    1252.3109236    1241.48097967    1240.55820811    1240.52175286    
1240.52175313    1240.55820758    1241.48097377    1252.31093741    1087.39172572    
1087.09097707    1251.42574825    1240.5582078    1239.63416965    1239.59768739    
1239.59768783    1239.63417388    1240.55819902    1251.42575505    1087.09096209    
1087.08166412    1251.39044857    1240.52175558    1239.59769045    1239.56120581    
1239.56120581    1239.59769021    1240.52174958    1251.39045419    1087.08165332    
1087.08166415    1251.3904489    1240.52175311    1239.59768795    1239.56120305    
1239.56120566    1239.5976901    1240.52174844    1251.39045231    1087.08164857    
1087.0909777    1251.42575173    1240.5582102    1239.63417447    1239.59769001    
1239.59769022    1239.63417389    1240.5582045    1251.42575546    1087.09096581    
1087.39173656    1252.31093189    1241.48097409    1240.55820131    1240.521746    
1240.52174809    1240.55820276    1241.48096778    1252.31092206    1087.39170264    
1094.98218524    1262.40520959    1252.31092953    1251.42575464    1251.39045467    
1251.39045267    1251.42575592    1252.31092191    1262.40523163    1094.98218733    
1212.43265792    1094.97181829    1087.39126772    1087.09095688    1087.08165519    
1087.08165764    1087.09095341    1087.39125178    1094.9718315    1212.43262856    

2     4     3     1     4     2     5     6     6     5     7     8     8     7     9     10     10     9     11     12     12     11     13     14     14     13     15     16     16     15     17     18     18     17     19     20     20     19     21     22     3     4     24     23     4     6     25     24     6     8     26     25     8     10     27     26     10     12     28     27     12     14     29     28     14     16     30     29     16     18     31     30     18     20     32     31     20     22     33     32     23     24     35     34     24     25     36     35     25     26     37     36     26     27     38     37     27     28     39     38     28     29     40     39     29     30     41     40     30     31     42     41     31     32     43     42     32     33     44     43     34     35     46     45     35     36     47     46     36     37     48     47     37     38     49     48     38     39     50     49     39     40     51     50     40     41     52     51     41     42     53     52     42     43     54     53     43     44     55     54     45     46     57     56     46     47     58     57     47     48     59     58     48     49     60     59     49     50     61     60     50     51     62     61     51     52     63     62     52     53     64     63     53     54     65     64     54     55     66     65     56     57     68     67     57     58     69     68     58     59     70     69     59     60     71     70     60     61     72     71     61     62     73     72     62     63     74     73     63     64     75     74     64     65     76     75     65     66     77     76     67     68     79     78     68     69     80     79     69     70     81     80     70     71     82     81     71     72     83     82     72     73     84     83     73     74     85     84     74     75     86     85     75     76     87     86     76     77     88     87     78     79     90     89     79     80     91     90     80     81     92     91     81     82     93     92     82     83     94     93     83     84     95     94     84     85     96     95     85     86     97     96     86     87     98     97     87     88     99     98     89     90     101     100     90     91     102     101     91     92     103     102     92     93     104     103     93     94     105     104     94     95     106     105     95     96     107     106     96     97     108     107     97     98     109     108     98     99     110     109     100     101     111     112     101     102     113     111     102     103     114     113     103     104     115     114     104     105     116     115     105     106     117     116     106     107     118     117     107     108     119     118     108     109     120     119     109     110     121     120     

