Title = " tecplot out file" 
variables = "x", "y", "z", "velX", "velY", "velZ","density","pressure","viscosity","temperature", "collisionFrequency",
Zone T = "nmesh0" N = 121 E = 100 DATAPACKING = BLOCK, VARLOCATION = ([4-11]=CELLCENTERED),  ZONETYPE=FEQUADRILATERAL 
0.0    
0.0    
0.1    
0.1    
0.0    

0.1    
0.0    
0.1    
0.0    
0.1    

0.0    
0.1    
0.0    
0.1    
0.0    

0.1    
0.0    
0.1    
0.0    
0.1    

0.0    
0.1    
0.2    
0.2    
0.2    

0.2    
0.2    
0.2    
0.2    
0.2    

0.2    
0.2    
0.2    
0.3    
0.3    

0.3    
0.3    
0.3    
0.3    
0.3    

0.3    
0.3    
0.3    
0.3    
0.4    

0.4    
0.4    
0.4    
0.4    
0.4    

0.4    
0.4    
0.4    
0.4    
0.4    

0.5    
0.5    
0.5    
0.5    
0.5    

0.5    
0.5    
0.5    
0.5    
0.5    

0.5    
0.6    
0.6    
0.6    
0.6    

0.6    
0.6    
0.6    
0.6    
0.6    

0.6    
0.6    
0.7    
0.7    
0.7    

0.7    
0.7    
0.7    
0.7    
0.7    

0.7    
0.7    
0.7    
0.8    
0.8    

0.8    
0.8    
0.8    
0.8    
0.8    

0.8    
0.8    
0.8    
0.8    
0.9    

0.9    
0.9    
0.9    
0.9    
0.9    

0.9    
0.9    
0.9    
0.9    
0.9    

1.0    
1.0    
1.0    
1.0    
1.0    

1.0    
1.0    
1.0    
1.0    
1.0    

1.0    
1.0    
0.9    
1.0    
0.9    
0.8    

0.8    
0.7    
0.7    
0.6    
0.6    

0.5    
0.5    
0.4    
0.4    
0.3    

0.3    
0.2    
0.2    
0.1    
0.1    

0.0    
0.0    
1.0    
0.9    
0.8    

0.7    
0.6    
0.5    
0.4    
0.3    

0.2    
0.1    
0.0    
1.0    
0.9    

0.8    
0.7    
0.6    
0.5    
0.4    

0.3    
0.2    
0.1    
0.0    
1.0    

0.9    
0.8    
0.7    
0.6    
0.5    

0.4    
0.3    
0.2    
0.1    
0.0    

1.0    
0.9    
0.8    
0.7    
0.6    

0.5    
0.4    
0.3    
0.2    
0.1    

0.0    
1.0    
0.9    
0.8    
0.7    

0.6    
0.5    
0.4    
0.3    
0.2    

0.1    
0.0    
1.0    
0.9    
0.8    

0.7    
0.6    
0.5    
0.4    
0.3    

0.2    
0.1    
0.0    
1.0    
0.9    

0.8    
0.7    
0.6    
0.5    
0.4    

0.3    
0.2    
0.1    
0.0    
1.0    

0.9    
0.8    
0.7    
0.6    
0.5    

0.4    
0.3    
0.2    
0.1    
0.0    

0.9    
1.0    
0.8    
0.7    
0.6    

0.5    
0.4    
0.3    
0.2    
0.1    

0.0    
0.0    0.0    0.0    0.0    0.0    
0.0    0.0    0.0    0.0    0.0    
0.0    0.0    0.0    0.0    0.0    
0.0    0.0    0.0    0.0    0.0    
0.0    0.0    0.0    0.0    0.0    
0.0    0.0    0.0    0.0    0.0    
0.0    0.0    0.0    0.0    0.0    
0.0    0.0    0.0    0.0    0.0    
0.0    0.0    0.0    0.0    0.0    
0.0    0.0    0.0    0.0    0.0    
0.0    0.0    0.0    0.0    0.0    
0.0    0.0    0.0    0.0    0.0    
0.0    0.0    0.0    0.0    0.0    
0.0    0.0    0.0    0.0    0.0    
0.0    0.0    0.0    0.0    0.0    
0.0    0.0    0.0    0.0    0.0    
0.0    0.0    0.0    0.0    0.0    
0.0    0.0    0.0    0.0    0.0    
0.0    0.0    0.0    0.0    0.0    
0.0    0.0    0.0    0.0    0.0    
0.0    0.0    0.0    0.0    0.0    
0.0    0.0    0.0    0.0    0.0    
0.0    0.0    0.0    0.0    0.0    
0.0    0.0    0.0    0.0    0.0    
0.0    
0.000146938670746    0.00365049074113    0.00387735114273    0.00388715591782    0.00388751021574    
0.00388751018689    0.00388715588048    0.00387735099318    0.00365049123402    0.000146938686042    
0.000652558310057    0.0131168729559    0.0137167397807    0.013741042144    0.0137417925682    
0.0137417912535    0.013741040797    0.0137167397414    0.0131168663749    0.000652557698233    
4.94111776789e-05    0.000981720062106    0.00101734470664    0.00101863557172    0.00101867118516    
0.00101867113245    0.00101863513287    0.00101733697477    0.000981736638887    4.94115978179e-05    
2.2286741618e-06    4.06329542076e-05    4.17663768524e-05    4.18015868038e-05    4.18051560673e-05    
4.18012117574e-05    4.18024874573e-05    4.17541655773e-05    4.06447629509e-05    2.22869412081e-06    
7.53056449096e-08    1.21246793755e-06    1.24025542493e-06    1.24054038471e-06    1.24082293801e-06    
1.24043979968e-06    1.24042565893e-06    1.23287637862e-06    1.22021433673e-06    7.52375663595e-08    
-7.51242155594e-08    -1.21745162276e-06    -1.23840782052e-06    -1.23938219179e-06    -1.23942494141e-06    
-1.24076486382e-06    -1.24103418037e-06    -1.24590779078e-06    -1.20923036396e-06    -7.51721507735e-08    
-2.22855011442e-06    -4.06413136743e-05    -4.17642392731e-05    -4.18024199976e-05    -4.18034208828e-05    
-4.18034681446e-05    -4.18027480886e-05    -4.17710595098e-05    -4.06323893178e-05    -2.22849701037e-06    
-4.94114930504e-05    -0.000981732778242    -0.00101733906562    -0.0010186301168    -0.00101866582832    
-0.00101866686944    -0.00101863148186    -0.0010173460353    -0.000981712304728    -4.94106785312e-05    
-0.0006525574455    -0.0131168650674    -0.0137167384193    -0.0137410437944    -0.0137417918174    
-0.01374179419    -0.0137410415333    -0.0137167473343    -0.0131168712865    -0.000652558587462    
-0.000146938671371    -0.00365049139118    -0.00387735121273    -0.00388715598795    -0.00388751031763    
-0.00388751028925    -0.00388715604665    -0.00387735181781    -0.00365049068295    -0.000146938673352    

-0.000147157842012    -0.000652510177191    -4.93650847111e-05    -2.22602012459e-06    -7.52180334632e-08    
7.49945095635e-08    2.2258344926e-06    4.93650310753e-05    0.000652509319749    0.000147157846919    
-0.00365041527067    -0.0131171548871    -0.000981727816401    -4.06328958587e-05    -1.20951169788e-06    
1.21778596272e-06    4.06413098623e-05    0.000981739416388    0.0131171462033    0.00365041604854    
-0.00387734439081    -0.0137167516769    -0.00101734926955    -4.17668937381e-05    -1.24162481307e-06    
1.23820525201e-06    4.17626199561e-05    0.00101733701475    0.0137167538462    0.00387734442592    
-0.00388715557815    -0.0137410422281    -0.00101863565417    -4.18013917905e-05    -1.23773068695e-06    
1.23972886716e-06    4.18021296773e-05    0.00101862901381    0.0137410440351    0.00388715580455    
-0.00388751017572    -0.013741791045    -0.00101867405372    -4.18043126064e-05    -1.24084068928e-06    
1.2405773992e-06    4.18032213017e-05    0.00101866492976    0.0137417921184    0.00388751034858    
-0.00388751017442    -0.0137417910456    -0.00101867115359    -4.18010605618e-05    -1.23758430705e-06    
1.24106896248e-06    4.180337946e-05    0.00101866675823    0.0137417939184    0.00388751043547    
-0.00388715554207    -0.0137410410041    -0.00101863822128    -4.18030556294e-05    -1.24059419701e-06    
1.24085245184e-06    4.1802492483e-05    0.00101862959479    0.0137410422119    0.00388715574977    
-0.0038773442446    -0.0137167541989    -0.00101734061881    -4.17569356731e-05    -1.23159077597e-06    
1.24600328349e-06    4.17702401907e-05    0.00101734622675    0.0137167586055    0.00387734516424    
-0.0036504157026    -0.0131171510672    -0.000981736788288    -4.06443198338e-05    -1.22002425299e-06    
1.20912540729e-06    4.06326490181e-05    0.000981719061617    0.0131171538658    0.00365041520949    
-0.000147157847776    -0.000652509538735    -4.93651382609e-05    -2.2259381156e-06    -7.51213213489e-08    
7.51304053984e-08    2.22581875853e-06    4.9364307475e-05    0.000652510452286    0.000147157844819    

1.99019552709e-17    2.91057669532e-17    3.53764312183e-17    2.56536829021e-17    3.03356982556e-17    
3.01554272834e-17    2.60003386384e-17    2.34541797335e-17    2.76337386627e-17    2.07048698738e-17    
1.16693650922e-17    4.57714538701e-17    6.15844966777e-17    3.00381343135e-17    5.45589595237e-17    
2.13656816749e-17    5.77002237005e-17    2.45739802201e-17    4.6941868114e-17    1.55884311383e-17    
2.63991740315e-17    4.02115566742e-17    4.4157484511e-17    3.7413233585e-17    3.34506261366e-17    
2.94173350519e-17    2.93796435337e-17    3.25377796103e-17    4.43889023187e-17    3.25258009067e-17    
1.77464926681e-17    3.98803072249e-17    3.51396455086e-17    2.72711872398e-17    3.44050133043e-17    
4.13859729265e-17    4.5297314578e-17    2.19747942498e-17    3.92771017237e-17    2.53424663375e-17    
2.08890393185e-17    3.22099323738e-17    4.27682753255e-17    2.65169848313e-17    4.37907860077e-17    
4.70811059175e-17    4.59638749317e-17    3.36545170895e-17    3.30844109415e-17    3.369318427e-17    
3.98809552615e-17    3.70791475889e-17    2.95429926018e-17    3.56729424953e-17    3.17518960227e-17    
4.48743050958e-17    3.23807694165e-17    2.24464902414e-17    3.13797663852e-17    3.45030779385e-17    
4.14168595426e-17    3.75658118824e-17    4.23295127089e-17    2.8057741598e-17    2.11620779868e-17    
3.91487479895e-17    2.96192817176e-17    3.18922128813e-17    3.01475182955e-17    3.91389812937e-17    
2.32877021192e-17    2.85350097121e-17    4.48896258541e-17    1.83292311261e-17    9.81035647145e-18    
3.64896731569e-17    3.9369581314e-17    4.25162751311e-17    1.91393488628e-17    2.85951646103e-17    
3.56168548039e-17    3.71896685506e-17    2.75789530256e-17    2.82412749845e-17    2.86993931727e-17    
1.7666267799e-17    3.53189031358e-17    4.27746200526e-17    3.16343284977e-17    3.34592483498e-17    
2.11620243588e-17    2.31897877206e-17    2.76710900385e-17    3.80195597012e-17    2.71220966373e-17    
1.53367836985e-17    7.41258142881e-18    2.1814246792e-17    3.12474823441e-17    3.95840865338e-17    

0.855886311413    0.77308478104    0.767333243417    0.767089603035    0.76708157005    
0.767081570422    0.767089603635    0.767333247207    0.773084776056    0.855886329379    
0.773091979289    1.00511897079    1.00334097277    1.00274578208    1.0027166226    
1.00271662319    1.00274578318    1.00334097381    1.00511896611    0.773091962787    
0.767333591711    1.00334097313    1.00131499738    1.00069305649    1.00066285232    
1.00066285249    1.00069305612    1.00131499677    1.00334097728    0.767333585712    
0.767089614777    1.00274578212    1.00069305628    1.0000699802    1.00003974545    
1.0000397457    1.00006998063    1.00069305426    1.00274578382    0.767089604348    
0.767081570565    1.00271662303    1.0006628529    1.00003974626    1.00000951085    
1.00000951084    1.00003974608    1.00066285196    1.00271662467    0.767081563005    
0.767081570592    1.00271662327    1.00066285247    1.00003974581    1.00000951021    
1.00000951074    1.00003974602    1.00066285168    1.00271662386    0.767081559682    
0.767089615289    1.00274578322    1.00069305667    1.000069981    1.00003974599    
1.00003974611    1.00006998063    1.00069305592    1.00274578365    0.767089606875    
0.767333593317    1.00334097503    1.00131499675    1.00069305513    1.0006628509    
1.00066285146    1.00069305523    1.00131499532    1.00334097262    0.767333569154    
0.773091976418    1.00511896723    1.0033409742    1.00274578354    1.00271662482    
1.0027166241    1.00274578379    1.00334097256    1.00511897282    0.773091978345    
0.85588633147    0.77308476982    0.767333238796    0.767089599057    0.767081564299    
0.767081565962    0.767089596614    0.767333227178    0.773084779513    0.855886311209    

1.71127859969    1.53541275415    1.52325189998    1.5227298326    1.52271226275    
1.52271226355    1.52272983388    1.52325190792    1.53541274256    1.71127863563    
1.53542729004    1.08452982715    1.04522196686    1.0432450219    1.04317192111    
1.04317193014    1.04324503271    1.04522198657    1.08452978119    1.53542725461    
1.52325262281    1.04522197104    1.00430555176    1.00227316274    1.00219876665    
1.0021987672    1.00227316185    1.00430552961    1.04522201185    1.52325261082    
1.52272985775    1.04324502229    1.00227316222    1.00023948499    1.00016508798    
1.00016508899    1.00023950055    1.00227313349    1.04324504495    1.52272983628    
1.52271226389    1.04317192981    1.00219877581    1.00016509771    1.00009069427    
1.00009069435    1.00016509729    1.00219875387    1.0431719473    1.52271224827    
1.52271226395    1.04317193042    1.00219876731    1.00016508914    1.00009068526    
1.00009069409    1.00016509705    1.00219875073    1.04317194271    1.52271224144    
1.52272985886    1.04324503308    1.00227317063    1.00023950172    1.00016509673    
1.00016509726    1.0002395006    1.00227314927    1.04324504662    1.52272984141    
1.52325262656    1.0452219969    1.00430553109    1.00227313944    1.00219874328    
1.00219874998    1.00227314499    1.00430550989    1.0452219663    1.52325257558    
1.53542728283    1.0845297876    1.0452219911    1.04324504415    1.04317194855    
1.04317194341    1.04324504789    1.0452219656    1.08452985953    1.53542728817    
1.71127863984    1.53541272961    1.52325189048    1.5227298244    1.52271225091    
1.52271225432    1.52272981932    1.52325186545    1.53541275113    1.71127859927    

3.94428819255e-07    3.92296359843e-07    3.9214251612e-07    3.92134503935e-07    3.92134165225e-07    
3.92134165238e-07    3.92134503953e-07    3.92142516208e-07    3.92296359493e-07    3.94428819259e-07    
3.92296409419e-07    2.39323500729e-07    2.32606296492e-07    2.32361525271e-07    2.32353809993e-07    
2.32353811512e-07    2.32361527015e-07    2.3260629985e-07    2.39323493416e-07    3.92296408869e-07    
3.92142522672e-07    2.32606297177e-07    2.25571873975e-07    2.25315415733e-07    2.25307377166e-07    
2.25307377233e-07    2.25315415639e-07    2.25571870057e-07    2.32606303754e-07    3.92142522655e-07    
3.9213450432e-07    2.32361525334e-07    2.25315415676e-07    2.25058541981e-07    2.25050493901e-07    
2.25050494038e-07    2.25058544739e-07    2.25315410814e-07    2.32361529101e-07    3.9213450416e-07    
3.9213416525e-07    2.32353811482e-07    2.25307378727e-07    2.25050495526e-07    2.25042445839e-07    
2.25042445855e-07    2.25050495482e-07    2.25307374903e-07    2.3235381433e-07    3.92134165121e-07    
3.92134165251e-07    2.32353811547e-07    2.25307377257e-07    2.25050494047e-07    2.25042444313e-07    
2.25042445826e-07    2.25050495449e-07    2.25307374384e-07    2.32353813654e-07    3.92134165073e-07    
3.92134504338e-07    2.32361527075e-07    2.25315417136e-07    2.25058544885e-07    2.25050495397e-07    
2.25050495472e-07    2.2505854475e-07    2.25315413385e-07    2.32361529436e-07    3.92134504182e-07    
3.92142522791e-07    2.32606301481e-07    2.25571870329e-07    2.25315411738e-07    2.25307373168e-07    
2.25307374286e-07    2.2531541273e-07    2.25571866735e-07    2.32606296418e-07    3.92142522161e-07    
3.92296409106e-07    2.39323494345e-07    2.32606300592e-07    2.3236152901e-07    2.32353814526e-07    
2.32353813736e-07    2.32361529639e-07    2.32606296304e-07    2.39323506124e-07    3.92296409419e-07    
3.94428819264e-07    3.92296359377e-07    3.92142516051e-07    3.92134503871e-07    3.92134165136e-07    
3.92134165158e-07    3.92134503823e-07    3.92142515643e-07    3.92296359846e-07    3.94428819253e-07    

1.99942279351    1.98608586252    1.98512434206    1.98507426847    1.98507215165    
1.98507215173    1.98507426859    1.98512434261    1.98608586033    1.99942279353    
1.98608617237    1.07900642478    1.04174153676    1.04038834223    1.04034569449    
1.04034570288    1.04038835187    1.04174155532    1.07900638408    1.98608616894    
1.98512438301    1.04174154055    1.00298662697    1.0015790119    1.00153489692    
1.00153489729    1.00157901139    1.00298660546    1.04174157691    1.9851243829    
1.98507427088    1.04038834258    1.00157901159    1.00016949293    1.00012533755    
1.00012533831    1.00016950806    1.00157898491    1.04038836341    1.98507426988    
1.98507215181    1.04034570271    1.00153490549    1.00012534647    1.00008118265    
1.00008118274    1.00012534623    1.00153488451    1.04034571846    1.985072151    
1.98507215181    1.04034570307    1.00153489742    1.00012533835    1.00008117428    
1.00008118258    1.00012534605    1.00153488166    1.04034571472    1.9850721507    
1.98507427099    1.0403883522    1.0015790196    1.00016950886    1.00012534576    
1.00012534617    1.00016950812    1.00157899902    1.04038836526    1.98507427002    
1.98512438375    1.04174156434    1.00298660696    1.00157898998    1.00153487498    
1.00153488112    1.00157899542    1.00298658723    1.04174153635    1.98512437982    
1.98608617042    1.07900638925    1.04174155943    1.04038836291    1.04034571954    
1.04034571517    1.04038836638    1.04174153572    1.07900645482    1.98608617238    
1.99942279356    1.9860858596    1.98512434163    1.98507426807    1.98507215109    
1.98507215124    1.98507426778    1.98512433908    1.98608586253    1.9994227935    

1210.17001146    1091.70468087    1083.48300681    1083.13379275    1083.12223069    
1083.12223122    1083.13379361    1083.48301221    1091.70467361    1210.17003687    
1091.71487818    1264.00985688    1253.3759836    1252.3231513    1252.27698058    
1252.27698325    1252.32315487    1253.37598914    1264.00984193    1091.71485451    
1083.48350285    1253.37598492    1241.86738901    1240.76490812    1240.71707442    
1240.71707472    1240.76490754    1241.8673832    1253.37599842    1083.48349436    
1083.13380958    1252.32315142    1240.76490779    1239.66060612    1239.61272965    
1239.61273013    1239.66061022    1240.76489899    1252.32315831    1083.13379475    
1083.12223143    1252.27698301    1240.71707716    1239.61273275    1239.56485373    
1239.56485373    1239.61273247    1240.71707106    1252.27698865    1083.12222068    
1083.12223147    1252.27698339    1240.71707473    1239.61273028    1239.56485097    
1239.56485358    1239.61273236    1240.71707003    1252.27698679    1083.12221595    
1083.13381032    1252.32315499    1240.76491015    1239.66061087    1239.61273225    
1239.61273249    1239.66061023    1240.76490438    1252.32315852    1083.13379833    
1083.48350519    1253.37599274    1241.86738352    1240.76490127    1240.71706749    
1240.71706964    1240.76490268    1241.8673771    1253.37598332    1083.48347066    
1091.71487392    1264.00984449    1253.37599058    1252.32315784    1252.27698909    
1252.27698719    1252.32315895    1253.3759831    1264.00986612    1091.71487684    
1210.17003983    1091.70466472    1083.48300024    1083.13378709    1083.12222251    
1083.12222487    1083.13378361    1083.48298357    1091.70467872    1210.17001117    

2     4     3     1     4     2     5     6     6     5     7     8     8     7     9     10     10     9     11     12     12     11     13     14     14     13     15     16     16     15     17     18     18     17     19     20     20     19     21     22     3     4     24     23     4     6     25     24     6     8     26     25     8     10     27     26     10     12     28     27     12     14     29     28     14     16     30     29     16     18     31     30     18     20     32     31     20     22     33     32     23     24     35     34     24     25     36     35     25     26     37     36     26     27     38     37     27     28     39     38     28     29     40     39     29     30     41     40     30     31     42     41     31     32     43     42     32     33     44     43     34     35     46     45     35     36     47     46     36     37     48     47     37     38     49     48     38     39     50     49     39     40     51     50     40     41     52     51     41     42     53     52     42     43     54     53     43     44     55     54     45     46     57     56     46     47     58     57     47     48     59     58     48     49     60     59     49     50     61     60     50     51     62     61     51     52     63     62     52     53     64     63     53     54     65     64     54     55     66     65     56     57     68     67     57     58     69     68     58     59     70     69     59     60     71     70     60     61     72     71     61     62     73     72     62     63     74     73     63     64     75     74     64     65     76     75     65     66     77     76     67     68     79     78     68     69     80     79     69     70     81     80     70     71     82     81     71     72     83     82     72     73     84     83     73     74     85     84     74     75     86     85     75     76     87     86     76     77     88     87     78     79     90     89     79     80     91     90     80     81     92     91     81     82     93     92     82     83     94     93     83     84     95     94     84     85     96     95     85     86     97     96     86     87     98     97     87     88     99     98     89     90     101     100     90     91     102     101     91     92     103     102     92     93     104     103     93     94     105     104     94     95     106     105     95     96     107     106     96     97     108     107     97     98     109     108     98     99     110     109     100     101     111     112     101     102     113     111     102     103     114     113     103     104     115     114     104     105     116     115     105     106     117     116     106     107     118     117     107     108     119     118     108     109     120     119     109     110     121     120     

