Title = " tecplot file for 2D Cavity problem " 
variables = "x", "y", "z", "velX", "cellCentroidY" 
Zone T = "nmesh0" N = 512 E = 1866 DATAPACKING = BLOCK, VARLOCATION = ([4-5]=CELLCENTERED),  ZONETYPE=FETETRAHEDRON 
0.42916656098    0.42842150611    0.4    0.34051337454    0.23262767273    
0.3    0.24682008018    0.2    0.33600985395    0.3    
0.050808641656    -0.035402467434    0.049179657707    0.0    0.1    
0.5    0.41584150354    0.5    0.5    0.13323196877    
0.14898078702    0.5    0.40325324194    0.5    0.5    
0.41387764401    0.5    0.5    0.5    0.41298543705    
0.5    0.34441498948    0.42951665674    0.43006137423    0.4    
0.23931697742    0.23159534999    0.2    0.5    0.5    
0.41565943951    0.5    0.41283694009    0.5    0.5    
0.5    0.5    0.41458409037    0.41248339184    0.5    
0.5    0.5    0.5    0.39991586198    0.5    
0.43047251134    0.5    0.5    0.41389108349    0.5    
0.5    0.41575913228    0.5    0.5    0.5    
0.5    0.5    0.41672585222    0.5    0.5    
0.40988493213    0.5    0.5    0.41256688197    0.5    
0.43249949214    0.5    0.5    0.41596076012    0.5    
0.43150808053    0.13770463614    0.13218280363    0.1    0.051788512588    
0.5    0.5    0.41634526442    0.5    0.5    
0.33682557706    0.5    0.5    0.5    0.42305210233    
0.5    0.5    0.5    0.5    0.4303612709    
0.5    0.5    0.5    0.5    0.41981491446    
0.5    0.5    0.5    0.5    0.41605117917    
0.5    0.5    0.41069173813    0.5    0.42138621211    
0.42351570725    0.41894367337    0.5    0.40994277596    0.5    
0.5    0.33714348864    0.42452907562    0.5    0.5    
0.3400972769    0.40643143654    0.5    0.42249646783    0.5    
0.5    0.4208522141    0.41016995907    0.41966915131    0.40371522307    
0.5    0.5    0.41874924302    0.41797992587    0.40574300289    
0.5    0.5    0.40456363559    0.5    0.41985109448    
0.5    0.41083729267    0.5    0.5    0.41752371192    
0.41802930832    0.32544157873    0.40966212749    0.41724288464    0.5    
0.5    0.41441592574    0.40398982167    0.5    0.40851894021    
0.5    0.40686893463    0.40083095431    0.5    0.40529754758    
0.075355291367    0.054106608372    0.16165715167    0.2552965064    0.21618300676    
0.13917322365    0.12681150436    0.1659873915    0.24049588671    0.21599367261    
0.24149773849    0.22001201334    0.26720950007    0.32631998995    0.075945161283    
0.199893713    0.089801393449    0.32413241278    -0.0091472639982    -0.0090313917026    
0.04200366788    -0.0092070130631    -0.068697194278    0.050223418972    0.21797369421    
0.16411380728    0.25717960571    0.076829195023    0.048075954435    0.22335318204    
0.26937237382    0.32758430144    -0.11857869927    -0.11743831635    0.15019595875    
0.17428602278    0.23516532036    0.13749680461    -0.17413212761    -0.0798689574    
-0.13552710118    -0.068677297262    0.10141577572    0.10382794224    -0.0081998756346    
0.22848429558    0.25836831331    0.32094819056    0.22567240675    0.099178366363    
0.11803464131    -0.0096004065126    0.29779165983    0.32309466119    0.33511499039    
0.13554979869    0.096038199961    0.19503767234    0.099135915325    0.053428890811    
0.0048525476329    0.0098382532597    -0.02876667971    0.027520179138    0.071248449385    
0.13124883421    0.05497633249    0.060427083065    0.070297665894    0.13032715471    
0.025589508627    0.057757489939    0.3348266298    0.28943228722    0.29376521122    
0.23970503818    0.14771813154    0.1781591624    0.15922263008    0.10916212201    
0.11208969134    0.15496959329    0.23030810958    0.28165134788    0.28492171403    
0.32972420545    0.011399649084    -0.053748317046    0.17495837808    0.23184024665    
0.23532533421    0.17415370047    0.23624265987    -0.111761495    -0.10732157528    
-0.00076911469271    -0.060991029216    0.0074519892223    0.29551333189    0.32577306634    
-0.058950658888    -0.064321370558    0.29951098561    0.32514679745    0.43463635445    
0.41288724785    0.4108916223    0.4183511734    0.42067414522    0.35672467947    
0.365768224    0.33426624537    0.41642519832    0.5    0.40772935748    
0.404743433    0.41910865903    0.41396996379    0.41279682517    0.41125491261    
0.42098331451    0.41994029284    0.41080650687    0.42240139842    0.41142642498    
0.5    0.31229171157    0.15790265799    0.17538171111    -0.0092536676675    
0.34415650368    0.23977512121    0.1739910841    0.11961134523    0.30331286788    
0.31472048163    -0.16532303393    0.19872111082    0.19613178074    0.073977522552    
0.024327076972    0.10164710879    -0.029528370127    0.3797275722    -0.093885757029    
0.00073439249536    -0.047222460383    0.1236821264    0.22944653034    0.34785842896    
0.17347851396    0.20889785886    -0.072128616273    0.084975063801    -0.042051788419    
0.26084318757    0.017661919817    0.31296682358    0.38542744517    0.36976534128    
0.31500515342    0.35841032863    0.34836876392    0.12949699163    0.35665869713    
0.3462074995    0.23858314753    0.35243031383    0.2825846076    0.32450819016    
0.045684359968    0.17613555491    0.36005350947    0.3537606895    0.094177126884    
-0.08715891093    -0.047226355567    0.30632644892    0.35427135229    0.31388688087    
0.25505360961    0.043514356017    0.42380711436    0.3027382791    0.28961977363    
0.25203999877    0.33483195305    0.27065211535    0.32815802097    0.32033136487    
0.27539527416    0.20948413014    0.31029897928    0.36348101497    0.27479037642    
0.34152519703    0.28594651818    0.26374059916    0.16394655406    0.031862605363    
0.15861544013    0.047332841903    -0.078038915992    -0.090018058647    -0.092446729541    
0.35711050034    0.29253688455    0.3377006948    0.25532969832    0.28339627385    
0.26911845803    0.28886640072    0.1826480031    0.20131455362    0.24962322414    
0.16273595393    0.15969090164    0.17064832151    -0.098757520318    0.32779544592    
0.23321388662    0.23224464059    0.23529757559    0.20047597587    0.22903570533    
0.31950846314    0.29873308539    0.31985118985    0.33092859387    0.21880926192    
0.29648944736    0.33286830783    0.34095993638    0.4014864862    0.32444682717    
0.27762913704    -0.039546322078    0.25187698007    0.20185385644    0.22624154389    
0.16945490241    0.06426165998    0.10646748543    0.02540740557    0.099418915808    
0.10967241228    0.03918877244    -0.026364712045    0.13161307573    0.22722111642    
0.10399028659    0.1569955647    0.20344738662    0.20461961627    -0.03237491101    
0.056703593582    -0.0081724626943    -0.20621149242    -0.13476338983    -0.096805028617    
0.036933004856    -0.03245934844    0.03991298005    -0.056873571128    -0.011179689318    
0.092651598155    0.033830851316    0.21098193526    0.11557609588    0.11566399038    
0.15766808391    0.33427661657    0.41924566031    0.23493692279    0.24479758739    
0.18614409864    0.3339946568    0.19725997746    0.19898495078    0.10168384761    
0.2496945262    -0.12804052234    0.27424177527    0.27723261714    0.29425120354    
0.32784238458    0.28737694025    0.16960006952    0.30145633221    0.21100731194    
0.13262072206    0.23338773847    0.15730819106    0.044982854277    0.14505885541    
0.1281991899    0.033566184342    0.24076008797    0.19546446204    0.21671915054    
0.14146855474    0.16263964772    0.12223561108    0.0158755593    0.079498335719    
-0.052821282297    0.10625118017    0.36127585173    0.23631863296    0.27395620942    
0.2626427114    0.22022998333    0.13536153734    0.10845112056    0.18599182367    
0.015071149915    0.25979170203    0.25330665708    0.042061634362    0.093645699322    
-0.058467663825    0.12012530863    0.11529561877    0.099765390158    0.247710675    
-0.11940420419    0.13408590853    0.040998559445    0.0025002514012    -0.024417564273    
-0.12341775    0.1961221993    0.068103633821    0.13770031929    -0.12434826791    
0.0036510885693    0.19300557673    0.44331139326    0.28096622229    0.23233468831    
0.26265394688    0.18562467396    0.12907977402    0.20268413424    0.0041586537845    
0.30142802    0.19189736247    
0.5    0.429596752    0.5    0.4165745512    -0.5    
-0.5    -0.4161304591    -0.5    0.5    0.5    
-0.41729287326    -0.5    -0.5    -0.5    -0.5    
0.5    0.5    0.40021852449    0.5    -0.5    
-0.41665591559    -0.33772571126    -0.33947356405    -0.4    -0.3    
-0.23585693143    -0.23367045597    -0.2    -0.13285262229    -0.13556582845    
-0.1    -0.41865150848    -0.5    -0.43069069151    -0.5    
0.41334446407    0.5    0.5    0.13852409406    0.2    
0.13329818812    0.1    -0.5    -0.41460392361    -0.5    
-0.41618175339    -0.5    -0.5    0.23276613717    0.23984721179    
0.3    -0.5    0.34081689785    0.33702374977    0.4    
-0.5    -0.5    -0.41889555576    -0.5    -0.41819843412    
0.0    -0.035386706556    -0.031990237213    0.05250692366    -0.5    
0.5    0.41638409393    0.5    0.5    -0.41564889515    
-0.5    0.41261783441    0.5    0.5    0.432153258    
0.5    0.5    0.41627475889    0.5    0.5    
0.049213199433    0.415353217    0.5    0.5    0.43123165166    
-0.41728514716    -0.5    -0.5    0.42856487181    0.5    
-0.5    -0.42995449687    -0.5    -0.2691570305    -0.28728654981    
-0.25331445445    -0.33938811823    -0.33336120628    -0.17854612253    -0.28406116366    
-0.24610955706    -0.33691688491    -0.32665781431    -0.004451597045    0.024051796645    
-0.083182727769    0.0074893949164    0.13091126552    0.069117591781    -0.19110110402    
-0.16351815207    -0.25962061136    -0.22086502612    -0.16930403225    -0.39498844743    
-0.36506685615    0.38986676931    0.33028126457    0.35635510087    0.41286418147    
0.32591989422    0.048207845241    0.025440203026    0.055803920966    -0.062441547325    
0.5    0.39572280645    -0.04523981653    -0.095246225595    -0.089695318892    
-0.15080354984    -0.35991880298    -0.11714138836    -0.38906952739    -0.27180847526    
-0.22633060806    -0.32947423378    -0.051343418658    -0.30245664716    0.11606233567    
0.14815816148    0.23105213736    0.28228649497    0.28552613117    -0.38712111115    
0.060016010399    0.10955008119    0.11338168767    0.15525254239    0.2887300849    
0.38527554274    -0.068760257322    -0.075761467218    0.18492367864    0.17639973484    
0.23719398748    0.20783288777    -0.20774790645    0.0027003096484    -0.056331504136    
-0.10925327537    0.007421862334    0.11519511789    0.23650637431    0.27081358433    
0.40556415915    0.33694749971    0.5    0.5    0.40817856789    
0.5    0.42218753695    0.5    0.5    0.40878561139    
0.5    0.5    0.40112841129    0.5    0.40488776565    
0.40188318491    0.41237428784    0.5    -0.5    -0.41674688458    
-0.5    -0.40289950371    -0.5    -0.5    -0.40988913178    
-0.5    -0.5    -0.42388322949    -0.5    -0.5    
-0.41450357437    -0.5    -0.5    -0.40743523836    -0.5    
-0.40987175703    -0.5    -0.5    -0.5    -0.41088786721    
-0.5    -0.5    -0.40612122416    -0.5    -0.5    
-0.5    -0.40840107203    -0.5    -0.5    -0.40350434184    
-0.5    -0.40420889854    -0.4003213346    -0.5    -0.5    
-0.249083151    -0.28295254707    -0.32958842445    -0.33611266694    -0.26366178696    
-0.33351694239    -0.27894175053    -0.23964649146    0.062263252802    0.035415314138    
0.052376288664    -0.0083935976601    0.14406319042    -0.052787981927    -0.070420141154    
-0.079550209737    -0.1695197161    -0.26361706724    -0.27666690946    -0.33294400704    
-0.23343964193    -0.36078566313    -0.21658487618    -0.16723185952    0.17826959491    
0.23811814127    0.15262745436    0.2245508896    0.27014958858    0.32823158508    
0.25766636154    0.1096214503    0.12253791368    -0.11895859987    -0.0081041377747    
-0.11922379789    0.10320707411    0.10461747366    0.22792232241    0.16590942442    
0.23199266606    -0.13304965671    -0.12737318873    -0.12080962956    -0.17444483602    
0.26088196039    0.32273088462    0.10577746481    0.16450707289    0.43160220981    
0.5    -0.30066591501    0.41754481196    -0.19487705827    -0.41352432966    
-0.41408312321    0.4051028192    -0.15736581385    0.056480263476    0.037101287395    
0.14297755063    -0.28984734416    -0.12528398633    -0.13690534234    0.018277786672    
0.026157518849    0.19208976626    0.21015691757    0.34662178159    0.31806838512    
0.33874036624    0.39575985074    0.41790369153    0.324447623    0.35532894731    
0.42463803291    0.4138597846    0.40473395586    0.39421370625    0.40688899159    
-0.39530804753    -0.41093692183    -0.40320238471    -0.40977177024    -0.42497992516    
-0.41830760241    -0.40012854338    -0.41277977824    -0.43080624938    -0.42418280244    
-0.37224984169    -0.41486208818    0.29598507285    0.34675326943    0.23752991855    
-0.0076216747984    0.19846518338    -0.19458571076    -0.18677288294    -0.010382949375    
-0.19807839394    0.20442558825    -0.00888705533    0.10332142562    0.064577847719    
-0.055106613785    0.36555072665    0.32162237167    0.31126359105    -0.33376443386    
-0.4233904779    -0.35075074434    -0.4389718473    -0.37153184414    -0.30754390359    
-0.31761169434    -0.29557338357    -0.20423352718    0.2280818522    -0.10807587951    
0.066371306777    -0.006048885585    -0.096046172082    -0.19139400125    -0.20667153597    
-0.1914806515    0.28596025705    0.30121514201    0.13677279651    0.1197059527    
0.046330191195    -0.12296640873    -0.032839149237    0.025269117206    -0.047051247209    
0.36280527711    0.29322531819    0.29386761785    0.27377107739    0.26993781328    
0.31281200051    0.35170808434    0.27493157983    0.32931315899    0.051580730826    
0.15089358389    0.30761867762    -0.31538873911    -0.32515165815    -0.37738835812    
-0.33833616972    -0.2065640837    -0.30777356029    -0.22811315954    -0.39243045449    
-0.32002750039    -0.3071628511    -0.37649872899    -0.3179461658    -0.29175436497    
0.3275821209    0.34828823805    -0.17579731345    -0.024031469598    -0.00079069216736    
-0.24114374816    -0.034587264061    0.05027442053    -0.026395486668    0.062724344432    
0.20585776865    0.22263081372    0.21250197291    0.03782395646    -0.037056777626    
-0.14089852571    -0.12366594374    -0.059011764824    -0.035562954843    0.32391750813    
0.33522045612    0.16369615495    0.32520911098    0.24808271229    0.28740420938    
0.19160328805    0.21694687009    0.28223505616    0.32341533899    0.27348574996    
0.35291832685    -0.037219654769    -0.097555346787    0.05316022411    0.058760710061    
0.10001272708    0.23456151783    0.095006659627    0.14584951103    0.28397116065    
0.19606357813    0.36908686161    -0.29430642724    -0.32122588158    -0.29029551148    
-0.32322400808    -0.32711231709    -0.27410635352    -0.27542617917    -0.3218523562    
-0.32291978598    -0.18507558107    -0.26491120458    -0.34224000573    -0.31831282377    
-0.27471598983    -0.26527518034    -0.36219865084    -0.4055737555    -0.27884525061    
-0.16256788373    -0.29389184713    -0.3455041945    0.24614353478    -0.18898910284    
-0.14747670293    -0.24116706848    -0.11606113613    0.20232315361    0.14728799462    
0.1796207428    0.07962167263    -0.23590271175    0.07716075331    -0.16312615573    
0.0047129187733    -0.083488866687    -0.0029765672516    0.24680477381    -0.031002148986    
0.1128847003    0.1805921495    0.0042603965849    -0.07660485059    0.1858946681    
0.1021591574    0.22532527149    0.18951381743    0.12777155638    0.12276419252    
-0.21266616881    -0.23511433601    -0.34043610096    -0.39380568266    -0.32652196288    
-0.34262031317    0.16222573817    0.26129713655    -0.204676494    -0.16343681514    
-0.20733688772    -0.052988871932    -0.11029076576    0.024648226798    -0.085883244872    
0.081637457013    0.26801609993    0.14785385132    0.062003210187    0.16071335971    
-0.23011241853    -0.15312837064    -0.12770707905    -0.27010452747    -0.02158492431    
0.14523732662    0.26006263494    0.32530039549    -0.073257319629    -0.23039861023    
-0.10164608061    0.063307881355    0.2766187191    0.197726354    0.1298456341    
-0.075726859272    -0.34643083811    0.26909923553    -0.037892248482    -0.19605831802    
0.13790594041    -0.10078287125    
0.42793796214    0.5    0.5    0.5    0.41295273957    
0.5    0.5    0.5    0.39869486687    0.5    
0.5    0.41677370705    0.43233139492    0.5    0.5    
0.3    0.33954888182    0.33729795577    0.4    0.41644486206    
0.5    0.40178275857    0.5    0.5    0.5    
0.5    0.41281632651    0.5    0.41311979077    0.5    
0.5    0.5    0.42846004317    0.5    0.5    
0.5    0.41140110409    0.5    0.41649616432    0.5    
0.5    0.5    0.23935730675    0.24498091313    0.2    
0.14691656139    0.3    0.13768711289    0.5    0.41390045096    
0.5    0.1    0.41683809598    0.5    0.5    
0.051761834717    0.0    0.048665079525    -0.033012205004    -0.049503663441    
0.5    0.5    0.41686231736    0.43263315932    -0.1    
0.0    -0.03482816    -0.034013318223    -0.1    -0.14785542545    
-0.13389429422    -0.13515066132    -0.2    -0.13472599842    0.049668605697    
0.050932008248    0.1    0.1338315988    0.13663319722    0.2    
0.5    0.5    0.41553842165    0.5    0.5    
0.34310626446    0.4    0.34057982649    0.42971742824    0.5    
0.40009930847    0.42942406134    0.5    0.04352171725    0.0014200225705    
-0.038819310195    -0.00044234021313    -0.095113427316    0.035621742557    0.087716415524    
0.12563835024    0.093989183076    0.19038062281    -0.054975019742    -0.012617296539    
-0.019241548604    0.046792553739    0.050671573191    -0.029669427208    -0.12508416176    
-0.07452854626    0.33175140539    0.35631603003    0.32438040068    0.39143767953    
0.047403976321    0.39461782575    0.25823932804    0.21887886524    0.23313293902    
0.16526434067    0.5    0.39658492804    0.34025933377    0.32777533286    
0.051700528289    0.077648535371    0.14793464846    0.12056104839    0.070556265639    
0.14319223715    0.14376212656    0.02897882089    -0.09749083966    0.28518301249    
0.23331765556    0.29047997712    -0.069024145603    -0.14165526628    -0.014157147147    
-0.06347358832    0.22544000624    0.27084487677    0.32885534463    0.29285573959    
0.1450578912    0.17947740853    0.24033164112    0.15304269004    0.38653129339    
-0.07909090817    0.5    0.38591915369    0.38540664315    0.32582332107    
0.10549143739    0.16132470965    0.16738274693    0.24048687965    0.26810845733    
0.23606320041    0.11326169968    0.30213809013    -0.0051805641003    0.049918755889    
0.39553371072    0.5    0.32333626661    0.32687551764    0.35387095809    
0.13620338323    0.075629703701    0.044752991542    0.10595417938    0.048317167908    
-0.0057556705344    0.22436354054    0.27786177397    0.28234629154    -0.017267705873    
0.1555070281    0.17156606913    0.17247740856    0.084021144665    0.046871855855    
0.028995898372    0.11928126216    0.13650920358    0.13731343842    0.35656905174    
0.3264322115    0.33032219433    0.39596351981    0.33911429504    0.23122514052    
0.28225055337    0.28520432503    0.23831385826    0.17871151865    0.1568161242    
0.11003278196    0.11235836251    0.060923871281    0.32721282985    0.38608124852    
0.41387018658    0.32759987319    0.17772006989    0.23903066386    0.23586175998    
-0.0010336220888    -0.059405729175    -0.064562959288    -0.11262059943    0.011424860917    
-0.055645185549    0.30085864663    0.11398679018    0.17554486258    0.054057149291    
0.5    0.42297139764    0.5    0.5    0.5    
0.5    0.41858780384    0.5    0.5    0.41492205858    
0.5    0.5    0.5    0.42031297088    0.5    
0.5    0.5    0.5    0.40753877163    0.5    
0.5    0.41957616806    0.41400375962    0.5    0.41238203645    
0.5    0.5    0.5    0.40431883931    0.5    
0.5    0.40513393283    0.5    0.40546107292    0.5    
0.5    0.41588512063    0.5    0.5    0.41374370456    
0.5    0.5    0.39857259393    0.41370847821    0.5    
0.40931418538    0.5    0.40453821421    0.5    0.2882578373    
0.23814801874    0.41144129634    0.15958067775    -0.028198638931    -0.017282199115    
0.21054162085    -0.0074634975754    0.41570726037    -0.13308059917    -0.10843267292    
0.0837681517    0.19909051061    0.20724311471    0.31529143453    0.20824097097    
0.30531173944    0.25303474069    -0.022460795939    0.0029560043477    0.13202397525    
0.049445390921    0.39901018143    0.41640809178    0.5    0.42102536559    
0.22703492641    -0.041891459376    -0.10760356486    0.285489887    0.11633669585    
0.39988803864    0.27216950059    0.20914195478    0.01528623607    0.094609223306    
-0.037241317332    0.28946328163    0.20995981991    0.091236807406    0.091885209084    
0.41463178396    0.5    0.39578789473    0.42512735724    0.33843892813    
0.4051745832    0.40359783173    0.41507530212    0.40738597512    0.36995971203    
0.42512899637    0.41078492999    0.38198536634    0.38756379485    0.052292995155    
0.17286199331    0.3114284277    0.43017831445    0.12092830241    0.34032797813    
0.32320696115    0.42278346419    -0.11588711292    0.024736555293    -0.065370410681    
0.065575197339    0.31063428521    0.068723715842    0.42333212495    0.31131532788    
0.41912767291    0.5    0.30213648081    0.25247895718    0.34214761853    
0.26416516304    0.42958766222    -0.10024724901    0.0090291341767    0.13685636222    
0.037774868309    -0.088732130826    -0.10657566041    -0.050448991358    0.056125931442    
0.19342458248    0.304577142    0.27183353901    0.19242742658    0.18705484271    
-0.044781114906    0.047008216381    0.0049936147407    -0.018255880103    0.30914595723    
0.31712794304    0.31000220776    0.4012170732    0.5    0.30649361014    
0.25312331319    0.16002696753    0.12006647885    0.056932210922    0.19843269885    
0.30204477906    0.20843856037    0.28757441044    0.066469952464    -0.011472829618    
0.21818335354    0.34207472205    0.32023024559    0.43335348368    0.28414472938    
0.34980875254    0.32898157835    0.38097414374    -0.024072546512    -0.085743904114    
-0.059111025184    -0.15389552712    0.086622461677    0.1615049094    0.11095100641    
0.0098743904382    0.11017861962    -0.028588078916    0.042325694114    0.13274617493    
0.34363538027    0.35594251752    -0.075362809002    -0.1201742515    0.099046066403    
0.163947016    0.086114391685    0.036438047886    0.052092600614    -0.11449263245    
-0.081502474844    0.33446398377    0.28269585967    0.33370113373    0.29367023706    
0.23530095816    0.34298023582    0.19563245773    0.065897509456    0.26147404313    
0.30612745881    -0.078917212784    0.20130155981    0.14789235592    0.3097256124    
0.17034308612    0.25056269765    0.28136381507    0.1706430316    0.33971264958    
0.33961439133    0.32316887379    0.23166464269    0.11625244468    0.23589520156    
0.15782602131    0.25363692641    0.21866203845    0.14758144319    0.13507446647    
0.12871466577    0.028005558997    -0.070507861674    0.22885876894    0.2219312489    
0.34429103136    0.22994162142    0.22223295271    0.35917812586    0.30139288306    
0.21038195491    0.33457097411    0.078827299178    0.24057671428    -0.052825815976    
0.17605555058    0.036128032953    0.052815146744    -0.034520238638    0.29424887896    
0.14954343438    0.1915037483    0.19721028209    0.2294396162    -0.033421739936    
-0.01128491573    0.079760968685    0.2424338907    0.26289540529    0.35016521811    
0.32793805003    0.33583557606    0.18057915568    0.075998753309    0.084541067481    
0.15512171388    0.25277805328    0.18298453093    0.1350004971    0.21694633365    
0.17704497278    0.26113656163    0.13926628232    0.21341387928    0.20955140889    
0.3158211112    -0.039259042591    0.061055991799    0.08092341572    -0.11375630647    
0.36438843608    0.17283803225    0.11486391723    0.21634921432    0.15856590867    
0.31263998151    -0.028945000842    -0.018989352509    0.12980239093    0.15176047385    
0.19533498585    0.10828005522    0.19240835309    0.43946272135    0.3662661612    
-0.038680508733    0.15245999396    0.26383394003    0.27586504817    0.26334768534    
0.37004882097    0.32066789269    
221.135856251    282.804330894    263.18118732    147.510163658    399.666163544    
399.894507154    399.742038945    197.315668825    159.256066696    186.622896719    
399.426311808    399.763295818    399.902880602    399.67073578    225.918092678    
235.426897032    235.664452734    399.863241242    399.722310877    399.186041143    
399.336473442    399.515501453    399.839674994    399.918892404    399.796324569    
399.520767053    399.857084518    399.675694404    399.481471977    399.705761486    
398.917215964    399.862444218    399.94712465    399.987874019    399.924192877    
192.710949679    195.282550348    200.187097458    395.167780809    398.696791    
398.239014699    399.902185764    399.778379215    399.447234285    399.765266933    
399.709806243    399.871916252    399.367839562    390.416324337    396.746284765    
392.647142615    399.534072673    383.049687323    391.097386673    373.571362522    
399.723129173    399.87429844    399.510636493    399.242248356    399.699681358    
399.843763374    399.247038108    398.474087097    399.502506105    398.739307384    
395.40863667    398.791842848    399.466622699    261.785902344    214.247377394    
216.580972668    210.110832776    202.450556338    133.734004276    201.023995059    
175.856599657    249.651145126    268.210308688    223.275737758    146.13722058    
189.950952539    172.791913574    195.673980346    399.543678799    398.32136242    
396.34658587    203.145621059    209.053975553    250.651060775    220.692181417    
399.863971131    399.93742933    399.781626281    271.486020321    365.561872667    
340.427392644    221.983085321    280.531980155    244.84223794    399.78871508    
399.942506267    399.807843274    399.917853789    399.984440569    399.971126296    
399.985030675    399.915616091    399.922619781    397.364232423    398.900535277    
398.893613198    398.339417288    397.50516992    398.253323515    396.611504594    
398.289388797    399.246112396    396.133894273    398.44629879    399.159541765    
398.601694719    398.075656916    391.621982129    395.276937461    391.655033695    
395.55557819    385.550677829    392.527393861    385.499611092    389.189773561    
399.172308182    399.219443904    398.933323897    398.471581645    399.66642057    
399.816787919    399.597115037    399.896580776    399.924174812    399.671764006    
399.889169476    399.917417379    399.627094252    399.884560854    399.815366415    
399.617082817    399.586025783    399.619021581    399.484344895    399.166407073    
398.898193372    399.492343129    399.151003957    398.033781451    397.391235151    
395.223438019    396.363207244    398.643705159    398.888332521    399.192499599    
398.970456052    398.122848029    331.0063527    342.533261881    365.693271471    
126.343885594    209.731131571    357.094614395    367.332462186    373.480255505    
315.793117823    154.487064241    166.190601144    230.052568063    366.188549038    
311.653449494    351.563950599    324.192517485    350.241441498    395.319784857    
397.09964537    398.502865802    394.994952381    398.971057791    397.327515739    
398.5656616    396.330808795    395.194677283    398.233273306    396.074273445    
396.824179507    89.5510093229    81.5833322825    93.0420902063    189.704997273    
217.563126364    392.300817504    397.060687862    397.013671845    395.09575928    
394.074032771    394.447139597    398.608821031    399.303888928    396.422449951    
399.059633402    397.893306769    392.247185269    395.867081657    394.714617946    
390.031951601    392.876140836    399.243826912    398.430899405    399.537241622    
399.562800107    398.855949446    399.72291849    399.673730056    397.395352755    
398.718029765    399.051090707    398.453776269    398.9168837    397.450263448    
397.499123463    398.64164621    387.757688867    388.64790059    388.11999603    
379.53688617    382.108487233    379.692874431    373.756234414    374.123716394    
338.03423254    365.113191005    399.350136509    399.780580546    399.844591784    
399.709870628    399.420986402    399.739082718    399.389127481    399.481836874    
388.326264466    390.450537933    382.209808389    382.729835545    339.127479278    
375.006596018    389.820893775    319.571209987    381.254279328    392.237043534    
347.770137483    387.716748688    377.074754677    385.621001939    235.30868551    
137.514755188    306.358909412    395.635643281    397.907469869    398.898846303    
397.005210721    394.722478903    398.636480664    399.158159124    398.489125536    
397.585026248    394.339836751    377.776805431    388.665738517    395.238144985    
396.31902744    390.451496507    378.647851593    360.84084515    351.127436249    
367.53404984    339.497667613    394.145915122    389.260414565    392.053204207    
374.705178088    385.230868456    378.407978541    376.312380107    397.34434616    
397.698905675    396.339581167    395.38938221    396.752111266    397.556355505    
396.437044482    395.145418057    394.770430082    393.728192221    395.572885669    
391.939122671    384.58291939    385.529888557    394.963936726    391.448606988    
389.20373978    389.470186508    391.234631991    391.550113938    394.122284711    
394.081098117    386.942436791    392.116700349    387.501323235    379.347925041    
299.12413427    318.075791825    316.786235762    207.55234668    115.449291788    