Title = " tecplot file for 2D Cavity problem " 
variables = "x", "y", "z", "velX", "cellCentroidY" 
Zone T = "nmesh0" N = 473 E = 1866 DATAPACKING = BLOCK, VARLOCATION = ([4-5]=CELLCENTERED), ZONETYPE=FETETRAHEDRON
-0.5    -0.5    -0.4138704772    -0.5    -0.2    
-0.24482126451    -0.23575467071    -0.3    0.23262767273    0.3    
0.24682008018    0.2    0.050808641656    -0.035402467434    0.049179657707    
0.0    0.1    0.13323196877    0.14898078702    -0.5    
-0.5    -0.41487956845    -0.5    0.5    0.40325324194    
0.5    0.5    -0.5    -0.5    -0.40273798903    
-0.5    -0.13552710118    -0.14568896865    -0.1    0.41387764401    
0.5    0.5    0.5    0.41298543705    0.5    
0.34441498948    0.42951665674    0.43006137423    0.4    -0.41627466288    
-0.5    -0.5    0.41283694009    0.5    0.5    
0.5    0.5    0.41458409037    0.5    -0.047222460383    
0.43047251134    0.5    0.5    0.41389108349    0.5    
0.5    0.41575913228    0.5    0.5    -0.5    
-0.41449434413    -0.5    -0.5    -0.42966308666    -0.43062428304    
-0.5    0.5    0.5    0.41634526442    -0.41844879934    
-0.5    -0.5    0.33682557706    -0.5    -0.41564796953    
-0.5    -0.41585244471    -0.5    -0.4    -0.3434495945    
-0.33931008122    0.5    0.5    0.5    0.42305210233    
0.5    0.5    0.5    0.4303612709    0.5    
0.5    0.5    0.5    0.41069173813    0.5    
0.42138621211    0.42351570725    0.42452907562    0.5    0.5    
0.42249646783    0.5    0.5    0.4208522141    0.41016995907    
0.5    0.41966915131    0.40371522307    0.5    0.5    
0.41985109448    0.32544157873    0.40966212749    0.40398982167    0.5    
0.40851894021    0.40686893463    0.5    -0.5    -0.42296874523    
-0.5    -0.5    -0.5    -0.5    -0.5    
-0.41858366132    -0.5    -0.5    -0.42031270266    -0.5    
-0.5    -0.5    -0.41230586171    -0.5    -0.5    
-0.41945183277    -0.41984084249    -0.42113384604    -0.5    -0.41490575671    
-0.5    -0.5    -0.41870516539    -0.41764780879    -0.32830968369    
-0.41883659363    -0.40545964241    -0.39857164025    -0.40753334761    0.04200366788    
-0.0090313917026    -0.059950577298    -0.0091472639982    -0.0092070130631    -0.068697194278    
0.050223418972    -0.24631274311    -0.28019207716    -0.26011336554    -0.3341501779    
-0.27584463358    -0.23610930287    -0.33131123226    -0.17413212761    -0.22436501086    
-0.263208228    0.21797369421    0.16411380728    0.25717960571    -0.23238664304    
-0.27598884702    -0.33237166555    0.076829195023    0.048075954435    -0.21457947791    
-0.16503904625    0.22335318204    0.26937237382    0.32758430144    -0.11743831635    
-0.11857869927    0.15019595875    0.17428602278    0.23516532036    0.13749680461    
-0.0798689574    -0.068677297262    -0.090018058647    0.10141577572    0.10382794224    
-0.0081998756346    0.22848429558    0.25836831331    0.32094819056    0.22567240675    
0.099178366363    0.11803464131    -0.0096004065126    0.29779165983    0.32309466119    
0.33511499039    -0.12863354104    -0.11733826995    -0.16343067608    -0.0057675576389    
0.13554979869    0.096038199961    0.19503767234    0.099135915325    0.053428890811    
0.0048525476329    0.0098382532597    -0.02876667971    0.13032715471    0.070297665894    
0.025589508627    0.057757489939    0.3348266298    0.28943228722    0.29376521122    
0.23970503818    -0.34318292141    -0.29205598748    -0.33475478502    0.14771813154    
-0.1486280825    -0.18488626182    -0.2427204482    -0.16331023844    0.1781591624    
0.15922263008    -0.23927073798    -0.30079066753    -0.32834642832    -0.12861982796    
-0.17706693709    0.17495837808    0.23184024665    0.23532533421    -0.30063694715    
-0.060991029216    0.0074519892223    0.29551333189    0.32577306634    0.4108916223    
0.42067414522    0.35672467947    0.365768224    0.41642519832    0.41910865903    
0.41396996379    0.41279682517    0.41125491261    0.42098331451    -0.39426568151    
-0.42356720567    -0.40986120701    -0.41669696569    -0.4073702395    -0.3158608377    
-0.35370069742    0.31472048163    -0.16532303393    -0.1905174493    -0.16084399819    
0.19872111082    0.19613178074    0.073977522552    0.13125571609    0.024327076972    
0.10164710879    -0.029528370127    0.3797275722    -0.093885757029    0.00073439249536    
-0.31226351857    -0.42919543386    0.17347851396    -0.072128616273    0.084975063801    
-0.042051788419    0.26084318757    0.31296682358    0.32450819016    0.36976534128    
0.31500515342    -0.39494851232    -0.33262723684    -0.31114178896    -0.33769670129    
-0.29911604524    0.35665869713    0.3462074995    0.23858314753    -0.35020586848    
-0.32330669084    -0.28339850903    -0.22941367328    0.2825846076    0.045684359968    
0.17613555491    0.36005350947    -0.34938344359    -0.33235824108    -0.24915324152    
0.094177126884    -0.089128628373    0.30632644892    0.35427135229    0.31388688087    
0.25505360961    0.32033136487    0.25203999877    -0.20621149242    -0.18753695488    
-0.30234223604    -0.27456402779    -0.20082744956    -0.078038915992    -0.056873571128    
-0.092446729541    -0.19577488303    0.35711050034    0.29253688455    0.3377006948    
0.25532969832    0.28339627385    -0.061174482107    0.26911845803    0.28886640072    
0.1826480031    0.20131455362    0.24962322414    0.031621340662    -0.30310287634    
-0.33568501472    0.17064832151    -0.098757520318    -0.026364712045    -0.12949573994    
0.32779544592    0.23321388662    0.23224464059    0.33092859387    0.21880926192    
0.29648944736    0.33286830783    0.4014864862    0.03918877244    -0.3474381268    
-0.20441767573    -0.18693882227    -0.29569122195    -0.33162468672    -0.13476338983    
-0.096805028617    0.036933004856    -0.03245934844    0.03991298005    -0.011179689318    
0.092651598155    0.033830851316    -0.13768592477    0.21098193526    0.11557609588    
0.11566399038    0.15766808391    0.33427661657    0.41924566031    0.23493692279    
-0.013419246301    -0.13240630925    0.24479758739    0.18614409864    0.3339946568    
0.10883488506    -0.04118507728    0.19725997746    0.15706507862    -0.23437448314    
-0.22919301689    0.10168384761    0.2496945262    -0.04975425452    -0.18743665516    
-0.12804052234    0.27424177527    -0.14424198866    0.22722111642    0.16960006952    
0.079051792622    0.092493660748    0.11585833877    0.21100731194    0.14475268126    
0.029059011489    -0.019574807957    0.051468979567    0.15591920912    0.032193314284    
0.2590701282    0.23338773847    0.15730819106    0.14505885541    0.13262072206    
0.24076008797    0.19546446204    -0.22727786005    -0.066529624164    -0.12831155956    
-0.24538828908    -0.22267621756    -0.15811020136    -0.23917742074    -0.071546114981    
-0.052821282297    0.10625118017    -0.14788794518    0.36127585173    0.23631863296    
0.27395620942    0.2626427114    -0.11608843505    -0.046197623014    -0.14662386477    
-0.065843753517    -0.16609786451    -0.23312325776    0.10845112056    0.18599182367    
-0.071007244289    0.015071149915    0.25979170203    0.25330665708    0.02622140944    
0.1131433621    0.042061634362    0.093645699322    0.09027723223    -0.14509645104    
-0.099340446293    -0.23836529255    -0.11940420419    -0.13248485327    -0.19018102103    
0.13408590853    -0.094359830022    -0.073288328946    0.040998559445    0.0025002514012    
-0.045799732208    -0.024417564273    -0.15145096183    0.13770031929    -0.11792815477    
-0.12434826791    -0.081871159375    0.0036510885693    -0.33809819818    -0.33518958092    
-0.24312114716    -0.2607704401    -0.18621949852    0.18562467396    0.20268413424    
0.0041586537845    -0.11848574132    0.19189736247    
-0.41485025007    -0.5    -0.5    -0.5    -0.5    
-0.41283393872    -0.5    -0.5    -0.5    -0.5    
-0.4161304591    -0.5    -0.41729287326    -0.5    -0.5    
-0.5    -0.5    -0.5    -0.41665591559    -0.13555449361    
-0.2    -0.13365527251    -0.1    -0.33772571126    -0.33947356405    
-0.4    -0.3    -0.3    -0.33946267551    -0.33777949659    
-0.4    -0.5    -0.41208065577    -0.5    -0.23585693143    
-0.23367045597    -0.2    -0.13285262229    -0.13556582845    -0.1    
-0.41865150848    -0.5    -0.43069069151    -0.5    -0.5    
-0.41728052302    -0.5    -0.5    -0.41460392361    -0.5    
-0.41618175339    -0.5    -0.5    -0.5    -0.41486208818    
-0.5    -0.5    -0.41889555576    -0.5    -0.41819843412    
0.0    -0.035386706556    -0.031990237213    -0.5    -0.23584578721    
-0.23411175976    -0.43068598049    -0.5    -0.42995592938    -0.5    
-0.5    -0.41728514716    -0.5    -0.5    -0.5    
-0.4186464452    -0.5    -0.5    -0.41612026266    -0.5    
-0.5    -0.5    -0.41664445837    -0.5    -0.41692620871    
-0.5    -0.42995449687    -0.5    -0.2691570305    -0.28728654981    
-0.25331445445    -0.33938811823    -0.17854612253    -0.28406116366    -0.24610955706    
-0.33691688491    -0.32665781431    -0.25962061136    -0.22086502612    -0.16930403225    
-0.39498844743    -0.36506685615    0.025440203026    -0.062441547325    -0.04523981653    
-0.095246225595    -0.089695318892    -0.15080354984    -0.35991880298    -0.11714138836    
-0.083182727769    -0.38906952739    -0.27180847526    -0.22633060806    -0.32947423378    
-0.38712111115    -0.068760257322    -0.075761467218    -0.20774790645    -0.10925327537    
-0.056331504136    0.007421862334    0.0074893949164    -0.26363756361    -0.28292962909    
-0.33609252844    -0.33349709041    -0.249058776    -0.32956940884    -0.23962192862    
-0.27891886234    -0.32513141571    -0.070394171848    -0.052761904895    -0.079524700525    
-0.16949393494    -0.26359996334    -0.22462379932    -0.17442565478    -0.23341764585    
-0.39626502991    -0.39000582695    -0.38854262233    -0.167206266    -0.21656090021    
-0.11920000043    -0.33292833057    -0.38923168182    -0.38744470477    -0.5    
-0.38401687145    -0.11893348396    -0.12734723091    -0.29863846302    -0.5    
-0.41674688458    -0.5    -0.5    -0.40289950371    -0.5    
-0.5    -0.5    -0.42898601294    -0.5    -0.5    
-0.41750517488    -0.5    -0.5    -0.5    -0.41281157732    
-0.5    -0.40988913178    -0.5    -0.5    -0.5    
-0.40747857094    -0.5    -0.42388322949    -0.5    -0.41370663047    
-0.5    -0.5    -0.41450357437    -0.5    -0.40743523836    
-0.5    -0.5    -0.40987175703    -0.5    -0.5    
-0.41088786721    -0.5    -0.32515165815    -0.40612122416    -0.5    
-0.5    -0.5    -0.40840107203    -0.5    -0.5    
-0.40350434184    -0.5    -0.40420889854    -0.4003213346    -0.5    
-0.5    -0.5    -0.3970053196    -0.5    -0.5    
-0.249083151    -0.28295254707    -0.32958842445    -0.33611266694    -0.26366178696    
-0.33351694239    -0.27894175053    -0.23964649146    -0.070420141154    -0.052787981927    
-0.079550209737    -0.1695197161    -0.26361706724    -0.27666690946    -0.33294400704    
-0.23343964193    -0.30869972706    -0.32854859337    -0.25977108713    -0.36078566313    
-0.057836333107    -0.10745344311    -0.11206135244    -0.15246265199    -0.21658487618    
-0.16723185952    -0.2256248161    -0.21857130527    -0.1703180259    -0.23243690152    
-0.20350812376    -0.11895859987    -0.0081041377747    -0.11922379789    -0.11567308009    
-0.13304965671    -0.12737318873    -0.12080962956    -0.17444483602    -0.30066591501    
-0.19487705827    -0.41352432966    -0.41408312321    -0.15736581385    -0.28984734416    
-0.12528398633    -0.13690534234    0.018277786672    0.026157518849    -0.33723035455    
-0.30859029293    -0.16469444335    -0.16071881354    -0.18672072887    -0.32092088461    
-0.41860616207    -0.39530804753    -0.41093692183    -0.32145904978    -0.36317887902    
-0.40320238471    -0.40977177024    -0.42497992516    -0.40172451735    -0.41830760241    
-0.40012854338    -0.41277977824    -0.43080624938    -0.42418280244    -0.37224984169    
-0.40374770761    -0.28969687223    -0.0076216747984    -0.19458571076    -0.18677288294    
-0.010382949375    -0.19807839394    -0.00888705533    -0.30754390359    0.064577847719    
-0.055106613785    -0.33117711544    -0.21379083395    -0.1080025211    -0.36072266102    
-0.3408729732    -0.33376443386    -0.4233904779    -0.35075074434    -0.4240283668    
-0.5    -0.27121648192    -0.28948011994    -0.37153184414    -0.31761169434    
-0.29557338357    -0.20423352718    -0.4245095253    -0.24754928052    -0.17014044523    
-0.10807587951    -0.097862228751    -0.096046172082    -0.19139400125    -0.20667153597    
-0.1914806515    -0.047051247209    0.046330191195    -0.29430642724    -0.41207942367    
-0.41739445925    -0.22237314284    -0.3187790215    -0.31538873911    -0.27542617917    
-0.37738835812    -0.32195004821    -0.33833616972    -0.2065640837    -0.30777356029    
-0.22811315954    -0.39243045449    -0.3252928257    -0.32002750039    -0.3071628511    
-0.37649872899    -0.3179461658    -0.29175436497    -0.28916287422    -0.14423176894    
-0.19829428196    -0.17579731345    -0.024031469598    -0.097555346787    -0.17197673023    
-0.00079069216736    -0.24114374816    -0.034587264061    0.03782395646    -0.037056777626    
-0.14089852571    -0.12366594374    -0.035562954843    -0.037219654769    -0.24254579842    
-0.24145521224    -0.31964325905    -0.3089671433    -0.36624127626    -0.32122588158    
-0.29029551148    -0.32322400808    -0.32711231709    -0.27410635352    -0.3218523562    
-0.32291978598    -0.18507558107    -0.32231086493    -0.26491120458    -0.34224000573    
-0.31831282377    -0.27471598983    -0.26527518034    -0.36219865084    -0.4055737555    
-0.23916488886    -0.35726514459    -0.27884525061    -0.16256788373    -0.29389184713    
-0.31939277053    -0.34549835324    -0.3455041945    -0.28313827515    -0.2038089725    
-0.10072826594    -0.18898910284    -0.14747670293    0.0026446154807    -0.23401971161    
-0.24116706848    -0.11606113613    -0.068703122437    0.058760710061    -0.23590271175    
-0.27347123623    -0.20451775193    -0.15168713033    -0.16312615573    -0.09261482209    
-0.040290866047    -0.15404245257    -0.082342945039    -0.22678218782    -0.18784360588    
-0.23009064794    -0.083488866687    -0.0029765672516    -0.031002148986    0.0047129187733    
0.0042603965849    -0.07660485059    0.0078520355746    -0.0587884821    -0.25626853108    
-0.16637940657    -0.13675382733    -0.16424137354    -0.052277233452    -0.16516906023    
-0.21266616881    -0.23511433601    -0.27982017398    -0.34043610096    -0.39380568266    
-0.32652196288    -0.34262031317    -0.27674484253    -0.24319313467    -0.21781112254    
-0.1916076839    -0.13821902871    -0.072664380074    -0.204676494    -0.16343681514    
-0.095085553825    -0.20733688772    -0.052988871932    -0.11029076576    -0.17033040524    
-0.15543183684    0.024648226798    -0.085883244872    -0.021924061701    -0.014708385803    
-0.021241758019    -0.25962746143    -0.23011241853    -0.1283313036    -0.17886283038    
-0.15312837064    -0.070242129266    -0.18226191401    -0.12770707905    -0.27010452747    
-0.13083967566    -0.02158492431    -0.090106748044    -0.073257319629    -0.11811682582    
-0.23039861023    -0.17377643287    -0.10164608061    -0.33556306362    -0.26796209812    
-0.3723038435    -0.35306036472    -0.2027105391    -0.34643083811    -0.037892248482    
-0.19605831802    -0.16018170118    -0.10078287125    
-0.047227253924    -0.1    -0.047249239466    0.0    0.5    
0.5    0.41442177303    0.5    0.41295273957    0.5    
0.5    0.5    0.5    0.41677370705    0.43233139492    
0.5    0.5    0.41644486206    0.5    0.4129810924    
0.5    0.5    0.5    0.40178275857    0.5    
0.5    0.5    0.5    0.40324887541    0.5    
0.5    0.41387018658    0.5    0.5    0.5    
0.41281632651    0.5    0.41311979077    0.5    0.5    
0.5    0.42846004317    0.5    0.5    0.050819165588    
0.050803359143    0.1    0.23935730675    0.24498091313    0.2    
0.14691656139    0.3    0.13768711289    0.1    0.5    
0.051761834717    0.0    0.048665079525    -0.033012205004    -0.049503663441    
0.5    0.5    0.41686231736    -0.1    0.4138731024    
0.5    0.43005880489    0.5    0.5    0.43011936806    
0.4    0.34310626446    0.4    0.34057982649    0.34452176089    
0.34441064656    0.3    0.40009930847    0.24681515561    0.24691782275    
0.2    0.14903199201    0.14897584059    0.5    0.5    
0.4034895322    0.42942406134    0.5    0.04352171725    0.0014200225705    
-0.038819310195    -0.00044234021313    0.035621742557    0.087716415524    0.12563835024    
0.093989183076    0.19038062281    0.33175140539    0.35631603003    0.32438040068    
0.39143767953    0.047403976321    0.39658492804    0.32777533286    0.14793464846    
0.12056104839    0.070556265639    0.14319223715    0.14376212656    0.02897882089    
-0.019241548604    -0.09749083966    0.28518301249    0.23331765556    0.29047997712    
0.29285573959    0.5    0.38591915369    0.16738274693    0.23606320041    
0.26810845733    0.11326169968    0.046792553739    0.053418787127    0.096028618515    
0.099127440898    0.0048444943122    0.13553962655    0.19502935245    -0.028776735345    
0.009828847833    -0.090026497793    0.13031650259    0.070287145674    0.025578999767    
0.057747212072    0.3348193235    0.35815262794    0.32576542873    0.23969568284    
0.39257279038    0.099635541439    0.00280686724    0.15921212253    0.17814914882    
0.23531558774    0.29375813616    0.29499465227    0.19694010913    0.19534210784    
-0.094315826893    0.17494806647    0.0074413027614    0.24282771349    0.028995898372    
0.046871855855    0.02759852098    0.084021144665    0.11928126216    0.13650920358    
0.13731343842    0.13606494283    0.096321478486    0.05362962737    0.09926985708    
0.0098271481693    -0.02899071622    0.0048425336282    0.32721282985    0.35906100273    
0.33554839985    0.35656905174    0.3264322115    0.33032219433    0.24083079202    
0.29017758369    0.29415361015    0.39596351981    0.33911429504    0.17940241098    
0.16131149801    0.23122514052    0.28225055337    0.28520432503    0.17871151865    
0.23831385826    0.1568161242    0.11003278196    0.11235836251    0.060923871281    
0.38608124852    0.32759987319    0.5    0.17772006989    0.23903066386    
0.23586175998    -0.0010336220888    -0.059405729175    -0.064562959288    -0.11262059943    
0.011424860917    -0.055645185549    0.30085864663    0.11398679018    0.17554486258    
0.054057149291    -0.062857338481    0.0077105318196    0.05839041274    -0.061958011744    
0.5    0.42297139764    0.5    0.5    0.5    
0.5    0.41858780384    0.5    0.5    0.42031297088    
0.5    0.5    0.5    0.40753877163    0.5    
0.5    0.40931478143    0.5    0.5    0.41957616806    
0.5    0.4218134582    0.5    0.5    0.41400375962    
0.5    0.5    0.41720235348    0.5    0.5    
0.40948286653    0.40546107292    0.5    0.5    0.41369006038    
0.5    0.39857259393    0.41370847821    0.5    0.41144129634    
-0.028198638931    -0.017282199115    0.21054162085    0.41570726037    0.19909051061    
0.20724311471    0.31529143453    0.20824097097    0.30531173944    0.051657501608    
0.33172354102    0.27060064673    0.4172065556    0.085017584264    0.15575273335    
0.049886126071    0.39988803864    0.27216950059    0.5    0.41577538848    
0.20914195478    0.01528623607    0.094609223306    -0.087718769908    -0.037241317332    
0.28946328163    0.20995981991    0.091236807406    0.091885209084    0.41463178396    
0.40589597821    0.42848265171    0.4051745832    0.41507530212    0.40738597512    
0.36995971203    0.42512899637    0.38198536634    -0.065370410681    0.052292995155    
0.17286199331    -0.042594596744    -0.031363163143    0.094171121716    0.23759411275    
0.063413895667    0.34032797813    0.32320696115    0.42278346419    -0.04481126368    
-0.090223203154    0.29248830676    0.41278365254    0.024736555293    0.065575197339    
0.31063428521    0.068723715842    0.33132430911    0.2142534256    0.32927832007    
0.31131532788    0.39003032446    0.30213648081    0.25247895718    0.34214761853    
0.26416516304    0.056125931442    0.037774868309    0.20130155981    0.088892474771    
0.18053664267    0.075111486018    0.082229703665    0.4012170732    0.1706430316    
0.30649361014    0.31692281365    0.25312331319    0.16002696753    0.12006647885    
0.056932210922    0.19843269885    0.066784948111    0.30204477906    0.20843856037    
0.28757441044    0.066469952464    -0.011472829618    -0.062301639467    0.19516539186    
0.3139936626    0.32023024559    0.43335348368    0.28269585967    0.30040669441    
0.28414472938    0.34980875254    0.32898157835    0.1615049094    0.11095100641    
0.0098743904382    0.11017861962    0.042325694114    0.33446398377    0.12425024062    
0.12834770977    -0.026390599087    -0.03352824226    0.00013410874817    0.14789235592    
0.3097256124    0.17034308612    0.25056269765    0.28136381507    0.33971264958    
0.33961439133    0.32316887379    0.36044147611    0.23166464269    0.11625244468    
0.23589520156    0.15782602131    0.25363692641    0.21866203845    0.14758144319    
0.087443321943    0.076657891273    0.13507446647    0.12871466577    0.028005558997    
-0.082985728979    -0.027454001829    -0.070507861674    -0.022462427616    0.24158235897    
0.14730614424    0.2219312489    0.34429103136    0.26697871089    0.32667097449    
0.22994162142    0.22223295271    0.30619335175    0.29367023706    0.078827299178    
0.0038494174369    0.047855906188    -0.031522978097    -0.052825815976    0.041371244937    
0.059226922691    0.034136377275    -0.057664580643    -0.10202209651    -0.13513913751    
-0.067244969308    0.036128032953    0.052815146744    0.29424887896    0.17605555058    
0.19721028209    0.2294396162    0.10178088397    -0.029195344076    0.071087941527    
0.13299069363    0.048695735633    0.12483026832    0.03325330466    0.20097199082    
0.32793805003    0.33583557606    0.43275335431    0.18057915568    0.075998753309    
0.084541067481    0.15512171388    -0.089256197214    -0.011554532684    -0.015375606716    
-0.13266196847    0.21756884456    0.24105484784    0.1350004971    0.21694633365    
0.11393018812    0.17704497278    0.26113656163    0.13926628232    -0.044534139335    
-0.12888933718    0.21341387928    0.20955140889    -0.0038021896034    0.13713715971    
0.052918769419    0.0068812705576    0.36438843608    -0.057732902467    0.18471531557    
0.17283803225    0.21636866033    0.11546137929    0.11486391723    0.21634921432    
-0.07355145365    0.15856590867    0.075541429222    0.12980239093    0.16571289301    
0.15176047385    -0.01878917031    0.19533498585    0.3235745132    0.032354045659    
0.086914613843    0.20444226265    0.064372561872    0.15245999396    0.27586504817    
0.26334768534    0.052078723907    0.32066789269    
399.55611012    399.834845345    399.764981897    399.890933755    399.644734901    
399.666163553    399.894507157    399.742038953    399.426311854    399.763295839    
399.718518297    399.902880609    399.670735802    399.863241247    399.722310887    
399.186041171    399.336473461    399.515501473    399.516771395    399.742477239    
399.839674997    399.918892405    399.796324572    399.810407045    399.914300764    
399.808163416    399.367310916    399.757703231    399.869673597    399.396949465    
399.523791261    399.520767054    399.857084518    399.675694406    399.481471973    
399.705761484    398.917215954    399.862444221    399.947124651    399.987874019    
399.924192879    399.561849448    399.845948626    399.582274711    399.902185767    
399.778379221    399.4472343    399.76526694    399.70980625    399.871916256    
399.367839581    399.534072688    399.850050039    399.492670478    399.262633082    
399.723129186    399.874298445    399.510636512    399.242248389    399.699681372    
399.84376338    399.247038145    398.739307367    399.502506099    399.466622721    
399.492656964    399.852259925    399.705870837    399.965293468    399.981218724    
399.900869336    399.985518734    399.898055442    399.982194859    399.90612403    
399.863971134    399.937429331    399.781626285    399.742127116    399.925864246    
399.830201014    399.788715085    399.942506268    399.807843278    399.693366758    
399.881672391    399.650651358    399.617011895    399.859084572    399.601381646    
399.936593127    399.771592465    399.934514609    399.908098884    399.76673103    
399.833159077    399.91785379    399.984440569    399.971126297    399.985030676    
399.915616093    399.922619783    397.364232532    398.900535327    398.339417355    
396.611504679    398.289388831    399.246112415    396.13389434    398.446298841    
399.159541784    398.601694753    398.075656952    399.172308188    399.219443906    
398.933323897    398.471581649    399.666420577    399.816787923    399.597115045    
399.896580779    399.924174814    399.671764013    399.889169479    399.917417381    
399.627094258    399.884560856    399.815366418    399.617082824    399.58602579    
399.619021595    399.484344912    399.166407101    398.898193405    399.492343154    
399.151003987    398.033781568    397.391235244    395.2234382    396.363207351    
398.643705236    398.888332576    399.192499632    398.970456097    398.122848084    
392.300817492    397.060687869    397.013671871    395.095759266    394.074032821    
394.447139658    398.608821075    399.303888947    396.42245006    399.059633426    
397.893306815    392.24718534    395.867081707    394.714618067    390.031951641    
392.876140918    397.08420918    398.430899494    398.8559495    398.718029768    
399.051090714    398.453776284    398.916883712    397.450263448    397.499123464    
398.641646222    399.350136521    399.780580551    399.844591788    399.709870633    
399.420986414    399.739082724    399.389127496    399.481836886    395.635643216    
397.907469842    398.898846291    397.005210688    394.722478824    397.327515698    
396.824179457    398.636480645    399.158159115    398.489125523    397.585026219    
394.33983666    397.34434619    397.698905695    396.339581181    395.389382266    
394.96393672    391.448606979    389.203739713    389.470186523    399.065402771    
398.786067663    398.076473865    397.720272872    397.792229804    398.99744154    
398.298052611    397.421373215    398.527774008    398.526735189    397.703926167    
396.370857876    396.127921002    397.201987749    394.846258226    397.286455542    
398.860046054    399.220763468    398.691608648    399.030241397    397.859870539    
398.093169474    399.512022571    399.860196919    399.89825278    399.903374006    
399.878578992    399.801861358    399.600091433    399.777264882    399.582656617    
399.861507799    399.446411798    399.552710791    399.587371819    399.007616313    
399.547305156    399.729855654    398.998740747    399.256649532    399.622207681    
399.199623931    399.295166917    398.31637968    399.273368089    399.651432842    
398.297091151    399.22967108    399.739120859    398.63948738    399.538820764    
399.19457347    399.053347882    398.939051134    398.145015272    395.91556294    
398.121022637    396.857376678    398.788161143    397.892878343    398.787771422    
396.436758708    397.135478397    396.948440659    399.387787125    399.688951517    
399.810646667    399.2867484    399.296789365    399.395351126    399.719514843    
399.462320491    399.386529226    399.498242556    399.713162279    398.803837731    
398.694768053    399.776571392    399.324332926    398.856994209    398.823994972    
399.283608856    399.641580184    398.876891622    398.536129314    398.013260881    
398.181614035    398.668812127    395.128736727    397.22097653    394.727188287    
394.331860228    397.825668829    398.6755802    397.466240515    399.094581614    
394.918243332    396.210929449    399.024615737    396.218100004    398.802007761    
396.977557279    398.146368495    397.279962433    398.007184476    397.04462868    
396.933972657    396.996983301    397.854125975    397.488351589    396.985801727    
398.080584264    399.076818649    398.433356464    398.555636921    397.598733158    
398.820336855    398.395721021    398.348841055    399.448176387    399.419513785    
399.136064134    398.716210052    399.246886515    398.822379908    399.088277642    
399.411620311    398.87161337    398.713909792    399.391531422    398.688886907    
399.111608056    399.442426161    399.169392473    398.392210634    398.761123216    
397.952736505    399.254683537    399.159292698    398.60570091    398.7491747    
398.647138974    399.450171327    399.736495495    398.565417589    398.032665608    
398.680491196    399.514550828    399.757014319    399.634703831    399.011919569    
399.329345874    398.513641116    399.007738518    398.809330116    397.837044579    
399.169649371    399.343479329    399.002342307    398.791313736    398.366644751    
397.802757415    398.586316723    397.60217043    398.380676037    397.620840392    
397.561168255    396.898389503    396.609006808    397.957442827    398.493814546    
397.705854048    397.372133925    399.268362552    399.496925889    398.495593926    
398.71713891    397.987289298    399.66286948    398.597200041    399.56879376    
398.915884281    399.207497224    399.258835736    398.730545836    399.026967665    
398.542519132    398.650732377    397.664679335    397.569225219    397.31511101    
397.493384714    398.136918043    398.793744013    397.494212697    397.313130921    
398.30991523    397.469704428    397.419155019    398.810978899    399.201026158    
399.189647402    398.063709736    398.112239611    397.96465947    397.801278681    