Title = " tecplot out file" 
variables = "x", "y", "z", "velX", "velY", "velZ","density","pressure","viscosity","temperature", "collisionFrequency",
Zone T = "nmesh0" N = 121 E = 100 DATAPACKING = BLOCK, VARLOCATION = ([4-11]=CELLCENTERED),  ZONETYPE=FEQUADRILATERAL 
0.0    
0.0    
0.1    
0.1    
0.0    

0.1    
0.0    
0.1    
0.0    
0.1    

0.0    
0.1    
0.0    
0.1    
0.0    

0.1    
0.0    
0.1    
0.0    
0.1    

0.0    
0.1    
0.2    
0.2    
0.2    

0.2    
0.2    
0.2    
0.2    
0.2    

0.2    
0.2    
0.2    
0.3    
0.3    

0.3    
0.3    
0.3    
0.3    
0.3    

0.3    
0.3    
0.3    
0.3    
0.4    

0.4    
0.4    
0.4    
0.4    
0.4    

0.4    
0.4    
0.4    
0.4    
0.4    

0.5    
0.5    
0.5    
0.5    
0.5    

0.5    
0.5    
0.5    
0.5    
0.5    

0.5    
0.6    
0.6    
0.6    
0.6    

0.6    
0.6    
0.6    
0.6    
0.6    

0.6    
0.6    
0.7    
0.7    
0.7    

0.7    
0.7    
0.7    
0.7    
0.7    

0.7    
0.7    
0.7    
0.8    
0.8    

0.8    
0.8    
0.8    
0.8    
0.8    

0.8    
0.8    
0.8    
0.8    
0.9    

0.9    
0.9    
0.9    
0.9    
0.9    

0.9    
0.9    
0.9    
0.9    
0.9    

1.0    
1.0    
1.0    
1.0    
1.0    

1.0    
1.0    
1.0    
1.0    
1.0    

1.0    
1.0    
0.9    
1.0    
0.9    
0.8    

0.8    
0.7    
0.7    
0.6    
0.6    

0.5    
0.5    
0.4    
0.4    
0.3    

0.3    
0.2    
0.2    
0.1    
0.1    

0.0    
0.0    
1.0    
0.9    
0.8    

0.7    
0.6    
0.5    
0.4    
0.3    

0.2    
0.1    
0.0    
1.0    
0.9    

0.8    
0.7    
0.6    
0.5    
0.4    

0.3    
0.2    
0.1    
0.0    
1.0    

0.9    
0.8    
0.7    
0.6    
0.5    

0.4    
0.3    
0.2    
0.1    
0.0    

1.0    
0.9    
0.8    
0.7    
0.6    

0.5    
0.4    
0.3    
0.2    
0.1    

0.0    
1.0    
0.9    
0.8    
0.7    

0.6    
0.5    
0.4    
0.3    
0.2    

0.1    
0.0    
1.0    
0.9    
0.8    

0.7    
0.6    
0.5    
0.4    
0.3    

0.2    
0.1    
0.0    
1.0    
0.9    

0.8    
0.7    
0.6    
0.5    
0.4    

0.3    
0.2    
0.1    
0.0    
1.0    

0.9    
0.8    
0.7    
0.6    
0.5    

0.4    
0.3    
0.2    
0.1    
0.0    

0.9    
1.0    
0.8    
0.7    
0.6    

0.5    
0.4    
0.3    
0.2    
0.1    

0.0    
0.0    0.0    0.0    0.0    0.0    
0.0    0.0    0.0    0.0    0.0    
0.0    0.0    0.0    0.0    0.0    
0.0    0.0    0.0    0.0    0.0    
0.0    0.0    0.0    0.0    0.0    
0.0    0.0    0.0    0.0    0.0    
0.0    0.0    0.0    0.0    0.0    
0.0    0.0    0.0    0.0    0.0    
0.0    0.0    0.0    0.0    0.0    
0.0    0.0    0.0    0.0    0.0    
0.0    0.0    0.0    0.0    0.0    
0.0    0.0    0.0    0.0    0.0    
0.0    0.0    0.0    0.0    0.0    
0.0    0.0    0.0    0.0    0.0    
0.0    0.0    0.0    0.0    0.0    
0.0    0.0    0.0    0.0    0.0    
0.0    0.0    0.0    0.0    0.0    
0.0    0.0    0.0    0.0    0.0    
0.0    0.0    0.0    0.0    0.0    
0.0    0.0    0.0    0.0    0.0    
0.0    0.0    0.0    0.0    0.0    
0.0    0.0    0.0    0.0    0.0    
0.0    0.0    0.0    0.0    0.0    
0.0    0.0    0.0    0.0    0.0    
0.0    
0.051880453392    0.10661762708    0.106658203852    0.106658238312    0.106658238346    
0.106658238346    0.106658238312    0.106658203831    0.106617627024    0.0518804530826    
0.000111123534253    0.000230538947126    0.000230716251968    0.000230716481567    0.000230716481858    
0.000230716398973    0.000230716398849    0.000230716356583    0.000230538369651    0.000111122938786    
1.60865526695e-07    3.32035178853e-07    3.32481075483e-07    3.32470628431e-07    3.32470594012e-07    
3.32470336133e-07    3.32469678819e-07    3.31997540059e-07    3.33160250523e-07    1.60539361288e-07    
4.36196649617e-10    1.42238259849e-10    5.42043385277e-10    3.5502266813e-10    5.31233337481e-10    
2.71801802846e-10    4.47264787575e-10    -1.50426572487e-10    7.69941608408e-10    2.17282495185e-10    
2.19380142743e-10    -1.28907803534e-10    9.34097888976e-12    -1.91976967286e-12    -1.62514683898e-12    
-2.19530892288e-12    -2.44852950176e-12    -3.65238663698e-10    2.77514334822e-10    -4.32711962229e-11    
2.18790097374e-10    -1.30010172815e-10    9.35486563532e-11    8.2794487437e-11    8.27324441251e-11    
-4.08017787988e-13    -1.17035592045e-12    -3.21791568619e-10    3.20492426369e-10    -5.1049384521e-14    
1.79824468927e-12    -5.78388583961e-10    -4.38862328528e-10    -4.49787038072e-10    -4.49850665873e-10    
-4.5003776796e-10    -4.50649271528e-10    -8.12900852345e-10    -1.70187110036e-10    -2.59713120458e-10    
-1.60363842954e-07    -3.33007738385e-07    -3.32142260782e-07    -3.32165098684e-07    -3.32165186864e-07    
-3.32219799805e-07    -3.32220514861e-07    -3.32540631571e-07    -3.31590394076e-07    -1.60130049765e-07    
-0.000111122588712    -0.00023053831914    -0.000230716202427    -0.000230716564188    -0.000230716431804    
-0.000230716564653    -0.000230716432217    -0.00023071665885    -0.000230538894835    -0.000111123404611    
-0.0518804531087    -0.106617627156    -0.106658204012    -0.106658238427    -0.106658238509    
-0.106658238461    -0.106658238475    -0.106658204209    -0.10661762702    -0.051880453392    

-0.0511546642678    -0.000110949006117    -1.6065000195e-07    -4.41603149427e-10    -2.24814020011e-10    
-2.24375473284e-10    -7.49901304697e-12    1.60134718191e-07    0.000110947978117    0.0511546640535    
-0.10661759622    -0.000230538937895    -3.32027443969e-07    -1.34358793947e-10    3.13191786702e-10    
1.32594301017e-10    5.80551612168e-10    3.32943076598e-07    0.000230538253942    0.106617596428    
-0.10665820385    -0.000230716244196    -3.32746061671e-07    -5.45841135215e-10    -9.78030824567e-11    
-9.70014437034e-11    3.50173624037e-10    3.3197835584e-07    0.000230716438272    0.106658204018    
-0.106658238313    -0.000230716473702    -3.32467573734e-07    -3.47131864138e-10    1.81546902791e-10    
-8.01997492236e-11    4.47270361268e-10    3.32100611827e-07    0.00023071656445    0.106658238572    
-0.106658238346    -0.00023071639326    -3.3265479994e-07    -4.5422772416e-10    -6.05609597648e-12    
-5.37570792987e-12    4.41978395036e-10    3.32119866489e-07    0.000230716464747    0.106658238533    
-0.106658238346    -0.00023071639326    -3.32467155704e-07    -2.66063324708e-10    1.81961742685e-10    
8.82540949788e-13    4.47722035952e-10    3.32219788764e-07    0.000230716564595    0.106658238606    
-0.106658238312    -0.000230716393396    -3.32654111107e-07    -4.53407440345e-10    -5.38387390325e-12    
-4.50784769861e-12    4.42698424422e-10    3.32120814761e-07    0.00023071646516    0.1066582385    
-0.106658203832    -0.000230716512841    -3.32198106954e-07    -6.56029305808e-12    4.41441320743e-10    
3.21945062712e-10    7.68894477091e-10    3.32540512669e-07    0.000230716645072    0.106658204336    
-0.106617596145    -0.000230538525072    -3.32638826114e-07    -7.69196228996e-10    -2.6305015111e-10    
-3.20574753099e-10    1.84649750881e-10    3.31560406668e-07    0.000230538908055    0.106617596157    
-0.0511546639947    -0.000110948208703    -1.6039396327e-07    -1.30230238781e-10    5.7843574152e-11    
8.69885319212e-11    2.74170408968e-10    1.60086100214e-07    0.000110948766025    0.0511546642678    

2.52507766771e-17    2.69017264758e-17    2.38073211272e-17    2.67230898577e-18    1.19638908594e-17    
2.6381199298e-17    -1.08320722125e-18    1.96663033059e-17    2.30193939001e-17    3.77426245962e-17    
3.56583900834e-17    2.27070408819e-17    2.51428959843e-17    1.65432321036e-17    2.46070659532e-17    
1.47477883929e-17    2.82574342457e-17    1.82913651997e-17    2.25642490361e-17    3.35983021946e-17    
2.75962365269e-17    4.2130146348e-17    2.52686598268e-17    1.78973651097e-17    3.50846049645e-17    
3.10334704069e-17    1.89296250576e-17    2.69475081899e-17    2.39228047017e-17    2.09482616426e-17    
8.5571840382e-18    2.35369555927e-17    3.12976754087e-17    1.53686543993e-17    2.85623827691e-17    
1.93809474578e-17    3.28798554539e-17    2.59578126325e-17    4.53775052208e-17    4.20693216565e-17    
2.10970789496e-17    3.38670219513e-17    -6.93635740792e-18    1.82129794198e-17    2.24751094306e-17    
1.59976314986e-17    1.24642486513e-17    1.75875279503e-17    4.73337338813e-18    6.38532381714e-18    
2.35385248754e-17    1.71671288147e-17    2.74715070933e-17    2.77104649278e-17    1.03996822372e-17    
2.27142220984e-17    2.78967636587e-17    4.52552846852e-17    2.90930587644e-17    1.05037038723e-17    
1.40834805847e-17    2.23424926977e-17    2.75666494642e-17    2.43920040995e-17    2.23609310923e-17    
2.55440663831e-17    3.41176304287e-17    2.18942349561e-17    1.41236337683e-17    2.74875896915e-17    
2.66245851693e-17    2.91441352088e-17    2.19687264238e-17    2.73061611405e-17    3.60747295278e-17    
9.14671780307e-18    2.64882277578e-17    1.70651709339e-17    2.88863931517e-17    3.57600335113e-17    
2.60154691855e-17    2.97649663129e-17    3.99102859598e-17    1.6723984674e-17    2.57076276939e-17    
2.45741979644e-17    2.69876910834e-17    3.22511819408e-17    1.60047305463e-17    1.10765667848e-17    
-4.00962375985e-19    3.34484188039e-17    3.04453129192e-17    2.82829067594e-17    2.13604304661e-17    
4.33466808648e-17    2.35036189987e-17    1.728022756e-17    3.66707795108e-17    1.51987329729e-17    

0.989794629747    0.987010848272    0.986909806065    0.986909650178    0.986909649979    
0.986909649979    0.986909650178    0.986909806172    0.987010848112    0.989794630289    
0.987011128759    1.00020680232    1.00010337751    1.00010321495    1.00010321474    
1.0001032148    1.00010321501    1.00010337776    1.00020680185    0.98701112839    
0.986909806363    1.00010337751    0.999999870398    0.999999707704    0.999999707495    
0.999999707495    0.999999707703    0.999999870274    1.00010337789    0.986909806097    
0.986909650173    1.00010321495    0.999999707699    0.999999544954    0.999999544796    
0.999999544798    0.999999545057    0.999999707542    1.00010321505    0.986909649935    
0.986909649974    1.00010321479    0.999999707545    0.999999544851    0.999999544642    
0.999999544642    0.999999544851    0.999999707471    1.00010321488    0.986909649824    
0.986909649974    1.00010321479    0.99999970749    0.999999544796    0.999999544587    
0.99999954464    0.999999544848    0.999999707428    1.00010321484    0.986909649735    
0.986909650173    1.000103215    0.999999707753    0.999999545059    0.999999544851    
0.999999544851    0.999999545059    0.99999970768    1.00010321509    0.986909650023    
0.986909806247    1.00010337782    0.999999870294    0.999999707606    0.999999707398    
0.999999707428    0.999999707636    0.999999870216    1.00010337749    0.986909805748    
0.987011128743    1.00020680192    1.00010337768    1.00010321505    1.0001032149    
1.00010321484    1.0001032151    1.00010337749    1.00020680241    0.987011128661    
0.989794630337    0.987010847965    0.986909805965    0.986909650112    0.986909649854    
0.986909649912    0.986909650053    0.986909805764    0.987010848062    0.989794629747    

1.74878437941    1.49773901518    1.497327777    1.49732723292    1.49732723221    
1.49732723221    1.49732723292    1.49732777738    1.49773901409    1.74878438131    
1.4977396686    1.0012732871    1.00064109124    1.00064029544    1.00064029441    
1.00064029496    1.00064029599    1.00064109285    1.00127328396    1.4977396664    
1.49732777761    1.00064109124    1.00000843407    1.00000763755    1.00000763651    
1.00000763651    1.00000763755    1.00000843252    1.00064109397    1.49732777667    
1.4973272329    1.00064029544    1.00000763752    1.00000684047    1.00000683996    
1.00000683998    1.00000684155    1.0000076358    1.00064029669    1.49732723175    
1.4973272322    1.00064029494    1.00000763705    1.00000684053    1.00000683949    
1.00000683949    1.00000684052    1.00000763577    1.00064029588    1.49732723137    
1.4973272322    1.00064029494    1.00000763649    1.00000683996    1.00000683893    
1.00000683948    1.00000684051    1.00000763554    1.00064029565    1.49732723105    
1.4973272329    1.00064029598    1.00000763808    1.00000684156    1.00000684052    
1.00000684052    1.00000684156    1.00000763681    1.00064029691    1.49732723207    
1.49732777749    1.00064109324    1.00000843268    1.00000763619    1.00000763516    
1.00000763554    1.00000763658    1.0000084316    1.00064109099    1.49732777452    
1.49773966797    1.00127328435    1.00064109288    1.00064029669    1.00064029596    
1.00064029565    1.00064029699    1.00064109109    1.00127328875    1.49773966834    
1.74878438145    1.49773901327    1.49732777635    1.4973272324    1.49732723148    
1.4973272317    1.49732723218    1.49732777474    1.4977390146    1.74878437941    

3.56829483718e-07    3.1545571361e-07    3.15411707805e-07    3.15411655326e-07    3.15411655258e-07    
3.15411655258e-07    3.15411655326e-07    3.15411707843e-07    3.15455713465e-07    3.56829483872e-07    
3.15455752474e-07    2.25221979462e-07    2.25125643831e-07    2.25125528448e-07    2.25125528297e-07    
2.25125528388e-07    2.25125528539e-07    2.25125644079e-07    2.25221978976e-07    3.15455752193e-07    
3.15411707834e-07    2.25125643831e-07    2.25029209517e-07    2.25029093988e-07    2.25029093837e-07    
2.25029093837e-07    2.25029093988e-07    2.25029209258e-07    2.25125644259e-07    3.15411707742e-07    
3.15411655325e-07    2.25125528448e-07    2.25029093984e-07    2.25028978367e-07    2.25028978304e-07    
2.25028978306e-07    2.25028978545e-07    2.25029093699e-07    2.25125528658e-07    3.1541165519e-07    
3.15411655256e-07    2.25125528386e-07    2.25029093926e-07    2.25028978397e-07    2.25028978246e-07    
2.25028978246e-07    2.25028978396e-07    2.25029093706e-07    2.25125528541e-07    3.15411655154e-07    
3.15411655256e-07    2.25125528386e-07    2.25029093833e-07    2.25028978304e-07    2.25028978153e-07    
2.25028978244e-07    2.25028978394e-07    2.25029093672e-07    2.25125528507e-07    3.15411655121e-07    
3.15411655325e-07    2.25125528537e-07    2.25029094076e-07    2.25028978547e-07    2.25028978396e-07    
2.25028978396e-07    2.25028978547e-07    2.25029093857e-07    2.25125528691e-07    3.15411655223e-07    
3.15411707844e-07    2.25125644138e-07    2.25029209283e-07    2.25029093758e-07    2.25029093607e-07    
2.25029093672e-07    2.25029093823e-07    2.250292091e-07    2.25125643789e-07    3.15411707465e-07    
3.1545575237e-07    2.25221979035e-07    2.25125644098e-07    2.25125528658e-07    2.25125528552e-07    
2.25125528507e-07    2.25125528702e-07    2.25125643807e-07    2.25221979744e-07    3.15455752454e-07    
3.56829483882e-07    3.15455713365e-07    3.15411707721e-07    3.15411655256e-07    3.15411655165e-07    
3.15411655187e-07    3.15411655233e-07    3.15411707498e-07    3.15455713566e-07    3.56829483718e-07    

1.76681538458    1.51744939562    1.51718806297    1.51718775133    1.51718775092    
1.51718775092    1.51718775133    1.5171880632    1.51744939476    1.76681538553    
1.51744962642    1.00106626428    1.00053765815    1.00053702506    1.00053702423    
1.00053702473    1.00053702556    1.00053765951    1.00106626161    1.51744962475    
1.51718806314    1.00053765815    1.00000856367    1.00000792985    1.00000792902    
1.00000792902    1.00000792985    1.00000856225    1.0005376605    1.5171880626    
1.51718775132    1.00053702506    1.00000792983    1.00000729551    1.00000729517    
1.00000729518    1.00000729649    1.00000792826    1.00053702621    1.51718775052    
1.51718775091    1.00053702472    1.00000792951    1.00000729568    1.00000729485    
1.00000729485    1.00000729568    1.0000079283    1.00053702557    1.51718775031    
1.51718775091    1.00053702472    1.000007929    1.00000729517    1.00000729434    
1.00000729484    1.00000729567    1.00000792812    1.00053702538    1.51718775011    
1.51718775132    1.00053702555    1.00000793033    1.00000729651    1.00000729568    
1.00000729568    1.0000072965    1.00000792913    1.00053702639    1.51718775071    
1.5171880632    1.00053765984    1.00000856239    1.00000792859    1.00000792776    
1.00000792811    1.00000792894    1.00000856139    1.00053765792    1.51718806095    
1.5174496258    1.00106626193    1.00053765962    1.00053702621    1.00053702563    
1.00053702538    1.00053702646    1.00053765802    1.00106626582    1.5174496263    
1.76681538559    1.51744939416    1.51718806247    1.51718775091    1.51718775037    
1.5171877505    1.51718775078    1.51718806115    1.51744939536    1.76681538458    

1367.00417413    1324.31729892    1324.13839379    1324.13813295    1324.13813262    
1324.13813262    1324.13813295    1324.13839397    1324.31729857    1367.00417502    
1324.31771354    1240.04134519    1239.78869582    1239.78834525    1239.7883448    
1239.78834498    1239.78834543    1239.78869644    1240.04134398    1324.31771277    
1324.13839421    1239.78869582    1239.5358019    1239.53545096    1239.53545051    
1239.53545051    1239.53545096    1239.53580141    1239.78869684    1324.13839377    
1324.13813294    1239.78834525    1239.53545095    1239.53509984    1239.53509956    
1239.53509956    1239.53510019    1239.53545039    1239.78834564    1324.13813249    
1324.13813261    1239.78834497    1239.53545069    1239.53509975    1239.53509929    
1239.53509929    1239.53509975    1239.53545031    1239.78834528    1324.13813231    
1324.13813261    1239.78834497    1239.5354505    1239.53509956    1239.53509911    
1239.53509929    1239.53509974    1239.53545021    1239.78834518    1324.13813216    
1324.13813294    1239.78834543    1239.53545114    1239.5351002    1239.53509975    
1239.53509975    1239.5351002    1239.53545076    1239.78834573    1324.13813264    
1324.13839407    1239.7886966    1239.53580147    1239.53545055    1239.53545009    
1239.53545021    1239.53545067    1239.53580114    1239.78869573    1324.13839302    
1324.31771341    1240.04134414    1239.78869637    1239.78834564    1239.78834531    
1239.78834518    1239.78834577    1239.78869576    1240.04134567    1324.31771339    
1367.0041751    1324.31729827    1324.13839357    1324.13813279    1324.13813236    
1324.13813246    1324.13813269    1324.13839308    1324.3172986    1367.00417413    

2     4     3     1     4     2     5     6     6     5     7     8     8     7     9     10     10     9     11     12     12     11     13     14     14     13     15     16     16     15     17     18     18     17     19     20     20     19     21     22     3     4     24     23     4     6     25     24     6     8     26     25     8     10     27     26     10     12     28     27     12     14     29     28     14     16     30     29     16     18     31     30     18     20     32     31     20     22     33     32     23     24     35     34     24     25     36     35     25     26     37     36     26     27     38     37     27     28     39     38     28     29     40     39     29     30     41     40     30     31     42     41     31     32     43     42     32     33     44     43     34     35     46     45     35     36     47     46     36     37     48     47     37     38     49     48     38     39     50     49     39     40     51     50     40     41     52     51     41     42     53     52     42     43     54     53     43     44     55     54     45     46     57     56     46     47     58     57     47     48     59     58     48     49     60     59     49     50     61     60     50     51     62     61     51     52     63     62     52     53     64     63     53     54     65     64     54     55     66     65     56     57     68     67     57     58     69     68     58     59     70     69     59     60     71     70     60     61     72     71     61     62     73     72     62     63     74     73     63     64     75     74     64     65     76     75     65     66     77     76     67     68     79     78     68     69     80     79     69     70     81     80     70     71     82     81     71     72     83     82     72     73     84     83     73     74     85     84     74     75     86     85     75     76     87     86     76     77     88     87     78     79     90     89     79     80     91     90     80     81     92     91     81     82     93     92     82     83     94     93     83     84     95     94     84     85     96     95     85     86     97     96     86     87     98     97     87     88     99     98     89     90     101     100     90     91     102     101     91     92     103     102     92     93     104     103     93     94     105     104     94     95     106     105     95     96     107     106     96     97     108     107     97     98     109     108     98     99     110     109     100     101     111     112     101     102     113     111     102     103     114     113     103     104     115     114     104     105     116     115     105     106     117     116     106     107     118     117     107     108     119     118     108     109     120     119     109     110     121     120     

