Title = " tecplot out file" 
variables = "x", "y", "z", "velX", "velY", "velZ","density","pressure","viscosity","temperature", "collisionFrequency",
Zone T = "nmesh0" N = 121 E = 100 DATAPACKING = BLOCK, VARLOCATION = ([4-11]=CELLCENTERED),  ZONETYPE=FEQUADRILATERAL 
0.0    
0.0    
0.1    
0.1    
0.0    

0.1    
0.0    
0.1    
0.0    
0.1    

0.0    
0.1    
0.0    
0.1    
0.0    

0.1    
0.0    
0.1    
0.0    
0.1    

0.0    
0.1    
0.2    
0.2    
0.2    

0.2    
0.2    
0.2    
0.2    
0.2    

0.2    
0.2    
0.2    
0.3    
0.3    

0.3    
0.3    
0.3    
0.3    
0.3    

0.3    
0.3    
0.3    
0.3    
0.4    

0.4    
0.4    
0.4    
0.4    
0.4    

0.4    
0.4    
0.4    
0.4    
0.4    

0.5    
0.5    
0.5    
0.5    
0.5    

0.5    
0.5    
0.5    
0.5    
0.5    

0.5    
0.6    
0.6    
0.6    
0.6    

0.6    
0.6    
0.6    
0.6    
0.6    

0.6    
0.6    
0.7    
0.7    
0.7    

0.7    
0.7    
0.7    
0.7    
0.7    

0.7    
0.7    
0.7    
0.8    
0.8    

0.8    
0.8    
0.8    
0.8    
0.8    

0.8    
0.8    
0.8    
0.8    
0.9    

0.9    
0.9    
0.9    
0.9    
0.9    

0.9    
0.9    
0.9    
0.9    
0.9    

1.0    
1.0    
1.0    
1.0    
1.0    

1.0    
1.0    
1.0    
1.0    
1.0    

1.0    
1.0    
0.9    
1.0    
0.9    
0.8    

0.8    
0.7    
0.7    
0.6    
0.6    

0.5    
0.5    
0.4    
0.4    
0.3    

0.3    
0.2    
0.2    
0.1    
0.1    

0.0    
0.0    
1.0    
0.9    
0.8    

0.7    
0.6    
0.5    
0.4    
0.3    

0.2    
0.1    
0.0    
1.0    
0.9    

0.8    
0.7    
0.6    
0.5    
0.4    

0.3    
0.2    
0.1    
0.0    
1.0    

0.9    
0.8    
0.7    
0.6    
0.5    

0.4    
0.3    
0.2    
0.1    
0.0    

1.0    
0.9    
0.8    
0.7    
0.6    

0.5    
0.4    
0.3    
0.2    
0.1    

0.0    
1.0    
0.9    
0.8    
0.7    

0.6    
0.5    
0.4    
0.3    
0.2    

0.1    
0.0    
1.0    
0.9    
0.8    

0.7    
0.6    
0.5    
0.4    
0.3    

0.2    
0.1    
0.0    
1.0    
0.9    

0.8    
0.7    
0.6    
0.5    
0.4    

0.3    
0.2    
0.1    
0.0    
1.0    

0.9    
0.8    
0.7    
0.6    
0.5    

0.4    
0.3    
0.2    
0.1    
0.0    

0.9    
1.0    
0.8    
0.7    
0.6    

0.5    
0.4    
0.3    
0.2    
0.1    

0.0    
0.0    0.0    0.0    0.0    0.0    
0.0    0.0    0.0    0.0    0.0    
0.0    0.0    0.0    0.0    0.0    
0.0    0.0    0.0    0.0    0.0    
0.0    0.0    0.0    0.0    0.0    
0.0    0.0    0.0    0.0    0.0    
0.0    0.0    0.0    0.0    0.0    
0.0    0.0    0.0    0.0    0.0    
0.0    0.0    0.0    0.0    0.0    
0.0    0.0    0.0    0.0    0.0    
0.0    0.0    0.0    0.0    0.0    
0.0    0.0    0.0    0.0    0.0    
0.0    0.0    0.0    0.0    0.0    
0.0    0.0    0.0    0.0    0.0    
0.0    0.0    0.0    0.0    0.0    
0.0    0.0    0.0    0.0    0.0    
0.0    0.0    0.0    0.0    0.0    
0.0    0.0    0.0    0.0    0.0    
0.0    0.0    0.0    0.0    0.0    
0.0    0.0    0.0    0.0    0.0    
0.0    0.0    0.0    0.0    0.0    
0.0    0.0    0.0    0.0    0.0    
0.0    0.0    0.0    0.0    0.0    
0.0    0.0    0.0    0.0    0.0    
0.0    
0.0539513353225    0.10897403796    0.108994543383    0.108994555046    0.108994555054    
0.108994555054    0.108994555046    0.108994543372    0.108974037929    0.0539513351525    
5.69618973285e-05    0.000116109905952    0.000116171323674    0.000116171380132    0.000116171380187    
0.000116171337812    0.000116171337814    0.000116171376604    0.000116109612237    5.69615899471e-05    
5.51225027152e-08    1.11939616411e-07    1.12088161677e-07    1.1208262136e-07    1.12082610007e-07    
1.12082488014e-07    1.12082262043e-07    1.11841166673e-07    1.12514011877e-07    5.49547684507e-08    
1.68369433528e-10    -4.21985562906e-11    1.62103283568e-10    6.63809017814e-11    1.56507664358e-10    
2.38379835769e-11    1.13709013325e-10    -1.91680492222e-10    2.78113196023e-10    5.59427099097e-11    
1.12539662916e-10    -6.59977431692e-11    4.61761552616e-12    -1.12585467215e-12    -1.03180622757e-12    
-1.25012733233e-12    -1.34580472742e-12    -1.86356158956e-10    1.41525301805e-10    -2.22631767892e-11    
1.12417531839e-10    -6.62485331293e-11    4.80620371955e-11    4.24914354219e-11    4.24630665543e-11    
-4.2348979977e-14    -3.12369966127e-13    -1.64045232744e-10    1.63676171275e-10    6.33326410327e-14    
5.65267025912e-11    -1.80531082898e-10    -1.09325294703e-10    -1.14955300432e-10    -1.14983544486e-10    
-1.15071140183e-10    -1.15289159749e-10    -3.00113874843e-10    2.7685708452e-11    -7.7834993918e-11    
-5.48646141458e-08    -1.12435666735e-07    -1.11914921981e-07    -1.11926728989e-07    -1.11926766231e-07    
-1.11954724321e-07    -1.11954977474e-07    -1.12118606355e-07    -1.11712855643e-07    -5.47432726247e-08    
-5.6961410435e-05    -0.000116109586362    -0.000116171298873    -0.000116171422089    -0.000116171354956    
-0.000116171422234    -0.000116171355173    -0.000116171530987    -0.000116109879519    -5.69618302136e-05    
-0.0539513351654    -0.108974037996    -0.108994543465    -0.108994555105    -0.108994555138    
-0.108994555113    -0.108994555129    -0.108994543565    -0.108974037928    -0.0539513353225    

-0.0533433133741    -5.69619568695e-05    -5.50785342573e-08    -1.71233934127e-10    -1.15373813834e-10    
-1.15304190774e-10    -5.94136947006e-11    5.48143034742e-08    5.69614271186e-05    0.0533433132651    
-0.108974037966    -0.000116109901936    -1.11935637859e-07    4.62281434625e-11    1.60228591943e-10    
6.75146160737e-11    1.81654182545e-10    1.12402928032e-07    0.000116109553676    0.108974038071    
-0.108994543391    -0.000116171319679    -1.12223651213e-07    -1.63971579526e-10    -4.98726867464e-11    
-4.98142010304e-11    6.39904185851e-11    1.11831629248e-07    0.00011617141899    0.108994543477    
-0.108994555046    -0.000116171376111    -1.12081010972e-07    -6.23456196909e-11    9.29936546235e-11    
-4.12194956037e-11    1.13708407397e-10    1.11893819243e-07    0.000116171422192    0.108994555179    
-0.108994555055    -0.000116171334891    -1.12176810368e-07    -1.17076171185e-10    -2.93435098792e-12    
-2.91254788629e-12    1.10949978001e-10    1.11904143867e-07    0.000116171371672    0.10899455515    
-0.108994555055    -0.000116171334914    -1.12080837721e-07    -2.09261802679e-11    9.31649311853e-11    
2.07059247396e-13    1.1389320485e-10    1.11954721147e-07    0.000116171422227    0.108994555188    
-0.108994555046    -0.000116171335006    -1.12176545614e-07    -1.16767071399e-10    -2.67625707384e-12    
-2.58716511995e-12    1.11224363325e-10    1.11904500183e-07    0.00011617137189    0.108994555142    
-0.108994543381    -0.000116171456305    -1.11943444338e-07    1.11548915814e-10    2.25631855184e-10    
1.64096159122e-10    2.77819807116e-10    1.12118562707e-07    0.000116171524056    0.108994543639    
-0.108974037926    -0.000116109691883    -1.12248428706e-07    -2.77848462848e-10    -1.34161869786e-10    
-1.63694067639e-10    -2.0322669282e-11    1.11697771497e-07    0.000116109886835    0.108974037932    
-0.0533433132348    -5.69615454078e-05    -5.49473185434e-08    -1.14038191568e-11    2.97131512664e-11    
4.44757456565e-11    8.52854026537e-11    5.47877952182e-08    5.69618325331e-05    0.0533433133741    

2.26855752923e-17    2.56142865855e-17    1.3028623737e-17    9.93924963287e-18    2.91968061366e-18    
1.05948867205e-17    1.13102704327e-17    2.23330990311e-17    1.54987995936e-17    1.15302738292e-17    
1.92574704025e-17    1.45498516942e-17    1.35903160753e-17    1.4045451586e-17    2.09533876362e-17    
2.21580177272e-17    3.00509095349e-17    2.01352211432e-17    8.86345885648e-18    2.33495586006e-17    
1.66121235802e-17    1.90075957993e-17    1.59548891958e-17    1.42705377852e-17    2.65401086067e-17    
1.33915677247e-17    3.53359124895e-17    1.87983141175e-17    1.78580534406e-17    4.06460647014e-17    
3.09734149451e-17    1.83172385378e-17    1.9292166427e-17    2.11208756546e-17    4.0641562056e-17    
1.63066226447e-17    2.17568404193e-17    2.24411450213e-17    1.64022116768e-17    1.9894855319e-17    
1.47768503867e-17    1.56500311966e-17    1.92505034916e-17    1.85382849945e-17    2.4256053817e-17    
1.00558278466e-17    2.33169993473e-17    1.53477905166e-17    9.42088529053e-18    3.35258852389e-17    
2.33762746872e-17    2.17862623727e-17    1.80640746065e-17    1.81078029966e-17    2.08670829237e-17    
1.87872932771e-17    1.76533817424e-17    1.82739782288e-17    2.28098958387e-17    -1.29543159773e-18    
3.53199679001e-17    3.64448744443e-17    2.40494500141e-17    3.25103709387e-17    2.04830652193e-17    
3.2127748208e-17    1.74337766939e-17    2.03182348482e-17    2.28103217532e-17    3.18990350827e-17    
2.2980426285e-17    3.64568425204e-17    6.37560475687e-18    1.86411543896e-17    2.39503195006e-17    
1.82065779254e-17    3.13091964416e-17    2.03226360819e-17    2.27604197414e-17    1.02535861098e-17    
2.24386121701e-17    1.08055578412e-17    2.68281519697e-17    1.8598920595e-17    2.66810829454e-17    
2.24071822431e-17    2.65116662753e-17    1.88019702013e-17    2.60392368312e-17    2.12626783529e-17    
1.81231876932e-17    3.52319438858e-17    3.26457183604e-17    2.92591872167e-17    9.79675442547e-18    
2.8822669278e-17    9.22488756976e-18    3.28837515039e-17    3.25600753202e-17    2.72411369229e-17    

0.995311502629    0.993382997422    0.993332091365    0.993332038441    0.99333203839    
0.99333203839    0.993332038441    0.993332091418    0.993382997337    0.99531150287    
0.993382997363    1.00010447866    1.00005206293    1.00005200839    1.00005200833    
1.00005200836    1.00005200841    1.00005206306    1.00010447842    0.993382997176    
0.993332091435    1.00005206293    0.999999613581    0.999999558994    0.999999558942    
0.999999558942    0.999999558994    0.999999613517    1.00005206313    0.993332091302    
0.993332038438    1.00005200839    0.999999558992    0.99999950438    0.999999504352    
0.999999504354    0.999999504432    0.999999558912    1.00005200843    0.993332038321    
0.993332038387    1.00005200836    0.999999558967    0.999999504381    0.999999504328    
0.999999504328    0.999999504381    0.999999558929    1.0000520084    0.993332038314    
0.993332038387    1.00005200836    0.999999558939    0.999999504352    0.9999995043    
0.999999504327    0.999999504379    0.999999558907    1.00005200838    0.99333203827    
0.993332038438    1.00005200841    0.99999955902    0.999999504433    0.999999504381    
0.999999504381    0.999999504433    0.999999558982    1.00005200846    0.993332038365    
0.993332091375    1.00005206309    0.999999613528    0.999999558945    0.999999558892    
0.999999558907    0.99999955896    0.999999613488    1.00005206292    0.993332091128    
0.993382997351    1.00010447845    1.00005206302    1.00005200843    1.00005200841    
1.00005200838    1.00005200846    1.00005206293    1.00010447871    0.993382997311    
0.995311502892    0.993382997264    0.993332091316    0.993332038409    0.993332038329    
0.993332038358    0.99333203838    0.993332091216    0.993382997312    0.995311502629    

1.7484562549    1.49482070334    1.49461134687    1.49461116099    1.49461116081    
1.49461116081    1.49461116099    1.49461134706    1.49482070278    1.7484562558    
1.49482070316    1.0006431092    1.00032512772    1.00032485865    1.00032485838    
1.00032485866    1.00032485893    1.00032512854    1.0006431076    1.49482070203    
1.49461134696    1.00032512772    1.0000069757    1.00000670643    1.00000670616    
1.00000670616    1.00000670643    1.00000697491    1.00032512911    1.49461134649    
1.49461116098    1.00032485865    1.00000670642    1.00000643687    1.00000643688    
1.00000643689    1.00000643743    1.00000670554    1.00032485928    1.4946111604    
1.4946111608    1.00032485866    1.00000670644    1.00000643717    1.0000064369    
1.0000064369    1.00000643717    1.00000670579    1.00032485913    1.49461116038    
1.4946111608    1.00032485866    1.00000670615    1.00000643688    1.00000643662    
1.0000064369    1.00000643716    1.00000670567    1.00032485902    1.49461116022    
1.49461116098    1.00032485892    1.0000067067    1.00000643743    1.00000643717    
1.00000643717    1.00000643743    1.00000670605    1.0003248594    1.49461116056    
1.4946113469    1.00032512874    1.00000697499    1.00000670574    1.00000670547    
1.00000670567    1.00000670593    1.00000697444    1.00032512759    1.49461134539    
1.49482070283    1.0006431078    1.00032512856    1.00032485928    1.00032485917    
1.00032485902    1.00032485944    1.00032512764    1.00064311003    1.49482070303    
1.74845625587    1.49482070236    1.49461134654    1.49461116073    1.49461116044    
1.49461116055    1.49461116062    1.49461134571    1.49482070305    1.7484562549    

3.55172586415e-07    3.13320283879e-07    3.1329774364e-07    3.132977256e-07    3.13297725582e-07    
3.13297725582e-07    3.132977256e-07    3.13297743659e-07    3.13320283804e-07    3.55172586493e-07    
3.13320283863e-07    2.25125810797e-07    2.25077416887e-07    2.25077377792e-07    2.25077377754e-07    
2.250773778e-07    2.25077377839e-07    2.25077417014e-07    2.2512581055e-07    3.13320283719e-07    
3.13297743638e-07    2.25077416887e-07    2.25028990507e-07    2.25028951376e-07    2.25028951338e-07    
2.25028951338e-07    2.25028951376e-07    2.25028990374e-07    2.25077417106e-07    3.13297743591e-07    
3.13297725599e-07    2.25077377792e-07    2.25028951374e-07    2.25028912199e-07    2.25028912205e-07    
2.25028912206e-07    2.2502891229e-07    2.25028951229e-07    2.25077377899e-07    3.1329772553e-07    
3.13297725581e-07    2.25077377799e-07    2.25028951383e-07    2.25028912252e-07    2.25028912214e-07    
2.25028912214e-07    2.25028912252e-07    2.25028951271e-07    2.25077377878e-07    3.13297725529e-07    
3.13297725581e-07    2.25077377799e-07    2.25028951336e-07    2.25028912205e-07    2.25028912167e-07    
2.25028912213e-07    2.25028912251e-07    2.25028951254e-07    2.2507737786e-07    3.13297725512e-07    
3.13297725599e-07    2.25077377838e-07    2.25028951421e-07    2.25028912291e-07    2.25028912252e-07    
2.25028912252e-07    2.25028912291e-07    2.2502895131e-07    2.25077377916e-07    3.13297725547e-07    
3.13297743643e-07    2.25077417044e-07    2.25028990387e-07    2.25028951259e-07    2.25028951221e-07    
2.25028951254e-07    2.25028951292e-07    2.25028990295e-07    2.25077416866e-07    3.13297743448e-07    
3.13320283809e-07    2.2512581058e-07    2.25077417024e-07    2.25077377899e-07    2.25077377883e-07    
2.2507737786e-07    2.25077377922e-07    2.25077416875e-07    2.2512581094e-07    3.13320283853e-07    
3.55172586498e-07    3.13320283753e-07    3.13297743597e-07    3.13297725563e-07    3.13297725535e-07    
3.13297725546e-07    3.13297725552e-07    3.13297743482e-07    3.13320283856e-07    3.55172586415e-07    

1.75669250308    1.50477782207    1.50464417677    1.50464406981    1.5046440697    
1.5046440697    1.50464406981    1.50464417688    1.50477782163    1.75669250356    
1.50477782198    1.00053857427    1.00027305057    1.00027283607    1.00027283586    
1.00027283611    1.00027283633    1.00027305126    1.00053857291    1.50477782112    
1.50464417676    1.00027305057    1.00000736212    1.00000714744    1.00000714722    
1.00000714722    1.00000714744    1.00000736139    1.00027305177    1.50464417648    
1.5046440698    1.00027283607    1.00000714743    1.0000069325    1.00000693253    
1.00000693254    1.000006933    1.00000714663    1.00027283666    1.50464406939    
1.5046440697    1.00027283611    1.00000714747    1.00000693279    1.00000693258    
1.00000693258    1.00000693279    1.00000714686    1.00027283654    1.50464406939    
1.5046440697    1.00027283611    1.00000714721    1.00000693253    1.00000693232    
1.00000693257    1.00000693279    1.00000714676    1.00027283645    1.50464406929    
1.5046440698    1.00027283632    1.00000714768    1.000006933    1.00000693279    
1.00000693279    1.000006933    1.00000714707    1.00027283675    1.50464406949    
1.50464417679    1.00027305143    1.00000736146    1.0000071468    1.00000714658    
1.00000714676    1.00000714698    1.00000736095    1.00027305045    1.50464417563    
1.50477782166    1.00053857308    1.00027305132    1.00027283666    1.00027283657    
1.00027283645    1.00027283678    1.0002730505    1.00053857505    1.50477782192    
1.75669250359    1.50477782132    1.50464417651    1.50464406959    1.50464406942    
1.50464406949    1.50464406952    1.50464417583    1.50477782194    1.75669250308    

1373.12362714    1330.74517366    1330.65452391    1330.65443504    1330.65443495    
1330.65443495    1330.65443504    1330.654524    1330.74517347    1373.12362755    
1330.74517357    1239.79027655    1239.66278226    1239.66266413    1239.66266402    
1239.66266411    1239.66266423    1239.66278258    1239.79027594    1330.74517317    
1330.654524    1239.66278226    1239.53520059    1239.53508237    1239.53508225    
1239.53508225    1239.53508237    1239.53520034    1239.66278278    1330.65452377    
1330.65443503    1239.66266413    1239.53508236    1239.53496405    1239.53496402    
1239.53496403    1239.53496423    1239.53508207    1239.66266433    1330.65443481    
1330.65443495    1239.66266411    1239.53508234    1239.53496412    1239.534964    
1239.534964    1239.53496412    1239.53508215    1239.66266426    1330.6544348    
1330.65443495    1239.66266411    1239.53508225    1239.53496402    1239.53496391    
1239.534964    1239.53496412    1239.5350821    1239.66266421    1330.65443472    
1330.65443503    1239.66266422    1239.53508246    1239.53496423    1239.53496412    
1239.53496412    1239.53496423    1239.53508226    1239.66266438    1330.65443488    
1330.65452392    1239.66278266    1239.53520037    1239.53508215    1239.53508204    
1239.5350821    1239.53508221    1239.5352002    1239.66278222    1330.6545234    
1330.7451735    1239.79027602    1239.66278254    1239.66266433    1239.66266428    
1239.66266421    1239.66266439    1239.66278223    1239.7902768    1330.74517349    
1373.12362758    1330.74517333    1330.6545238    1330.65443496    1330.65443482    
1330.65443487    1330.65443491    1330.65452355    1330.74517349    1373.12362714    

2     4     3     1     4     2     5     6     6     5     7     8     8     7     9     10     10     9     11     12     12     11     13     14     14     13     15     16     16     15     17     18     18     17     19     20     20     19     21     22     3     4     24     23     4     6     25     24     6     8     26     25     8     10     27     26     10     12     28     27     12     14     29     28     14     16     30     29     16     18     31     30     18     20     32     31     20     22     33     32     23     24     35     34     24     25     36     35     25     26     37     36     26     27     38     37     27     28     39     38     28     29     40     39     29     30     41     40     30     31     42     41     31     32     43     42     32     33     44     43     34     35     46     45     35     36     47     46     36     37     48     47     37     38     49     48     38     39     50     49     39     40     51     50     40     41     52     51     41     42     53     52     42     43     54     53     43     44     55     54     45     46     57     56     46     47     58     57     47     48     59     58     48     49     60     59     49     50     61     60     50     51     62     61     51     52     63     62     52     53     64     63     53     54     65     64     54     55     66     65     56     57     68     67     57     58     69     68     58     59     70     69     59     60     71     70     60     61     72     71     61     62     73     72     62     63     74     73     63     64     75     74     64     65     76     75     65     66     77     76     67     68     79     78     68     69     80     79     69     70     81     80     70     71     82     81     71     72     83     82     72     73     84     83     73     74     85     84     74     75     86     85     75     76     87     86     76     77     88     87     78     79     90     89     79     80     91     90     80     81     92     91     81     82     93     92     82     83     94     93     83     84     95     94     84     85     96     95     85     86     97     96     86     87     98     97     87     88     99     98     89     90     101     100     90     91     102     101     91     92     103     102     92     93     104     103     93     94     105     104     94     95     106     105     95     96     107     106     96     97     108     107     97     98     109     108     98     99     110     109     100     101     111     112     101     102     113     111     102     103     114     113     103     104     115     114     104     105     116     115     105     106     117     116     106     107     118     117     107     108     119     118     108     109     120     119     109     110     121     120     

