Title = " tecplot out file" 
variables = "x", "y", "z", "velX", "velY", "velZ","density","pressure","viscosity","temperature", "collisionFrequency",
Zone T = "nmesh0" N = 121 E = 100 DATAPACKING = BLOCK, VARLOCATION = ([4-11]=CELLCENTERED),  ZONETYPE=FEQUADRILATERAL 
0.0    
0.0    
0.1    
0.1    
0.0    

0.1    
0.0    
0.1    
0.0    
0.1    

0.0    
0.1    
0.0    
0.1    
0.0    

0.1    
0.0    
0.1    
0.0    
0.1    

0.0    
0.1    
0.2    
0.2    
0.2    

0.2    
0.2    
0.2    
0.2    
0.2    

0.2    
0.2    
0.2    
0.3    
0.3    

0.3    
0.3    
0.3    
0.3    
0.3    

0.3    
0.3    
0.3    
0.3    
0.4    

0.4    
0.4    
0.4    
0.4    
0.4    

0.4    
0.4    
0.4    
0.4    
0.4    

0.5    
0.5    
0.5    
0.5    
0.5    

0.5    
0.5    
0.5    
0.5    
0.5    

0.5    
0.6    
0.6    
0.6    
0.6    

0.6    
0.6    
0.6    
0.6    
0.6    

0.6    
0.6    
0.7    
0.7    
0.7    

0.7    
0.7    
0.7    
0.7    
0.7    

0.7    
0.7    
0.7    
0.8    
0.8    

0.8    
0.8    
0.8    
0.8    
0.8    

0.8    
0.8    
0.8    
0.8    
0.9    

0.9    
0.9    
0.9    
0.9    
0.9    

0.9    
0.9    
0.9    
0.9    
0.9    

1.0    
1.0    
1.0    
1.0    
1.0    

1.0    
1.0    
1.0    
1.0    
1.0    

1.0    
1.0    
0.9    
1.0    
0.9    
0.8    

0.8    
0.7    
0.7    
0.6    
0.6    

0.5    
0.5    
0.4    
0.4    
0.3    

0.3    
0.2    
0.2    
0.1    
0.1    

0.0    
0.0    
1.0    
0.9    
0.8    

0.7    
0.6    
0.5    
0.4    
0.3    

0.2    
0.1    
0.0    
1.0    
0.9    

0.8    
0.7    
0.6    
0.5    
0.4    

0.3    
0.2    
0.1    
0.0    
1.0    

0.9    
0.8    
0.7    
0.6    
0.5    

0.4    
0.3    
0.2    
0.1    
0.0    

1.0    
0.9    
0.8    
0.7    
0.6    

0.5    
0.4    
0.3    
0.2    
0.1    

0.0    
1.0    
0.9    
0.8    
0.7    

0.6    
0.5    
0.4    
0.3    
0.2    

0.1    
0.0    
1.0    
0.9    
0.8    

0.7    
0.6    
0.5    
0.4    
0.3    

0.2    
0.1    
0.0    
1.0    
0.9    

0.8    
0.7    
0.6    
0.5    
0.4    

0.3    
0.2    
0.1    
0.0    
1.0    

0.9    
0.8    
0.7    
0.6    
0.5    

0.4    
0.3    
0.2    
0.1    
0.0    

0.9    
1.0    
0.8    
0.7    
0.6    

0.5    
0.4    
0.3    
0.2    
0.1    

0.0    
0.0    0.0    0.0    0.0    0.0    
0.0    0.0    0.0    0.0    0.0    
0.0    0.0    0.0    0.0    0.0    
0.0    0.0    0.0    0.0    0.0    
0.0    0.0    0.0    0.0    0.0    
0.0    0.0    0.0    0.0    0.0    
0.0    0.0    0.0    0.0    0.0    
0.0    0.0    0.0    0.0    0.0    
0.0    0.0    0.0    0.0    0.0    
0.0    0.0    0.0    0.0    0.0    
0.0    0.0    0.0    0.0    0.0    
0.0    0.0    0.0    0.0    0.0    
0.0    0.0    0.0    0.0    0.0    
0.0    0.0    0.0    0.0    0.0    
0.0    0.0    0.0    0.0    0.0    
0.0    0.0    0.0    0.0    0.0    
0.0    0.0    0.0    0.0    0.0    
0.0    0.0    0.0    0.0    0.0    
0.0    0.0    0.0    0.0    0.0    
0.0    0.0    0.0    0.0    0.0    
0.0    0.0    0.0    0.0    0.0    
0.0    0.0    0.0    0.0    0.0    
0.0    0.0    0.0    0.0    0.0    
0.0    0.0    0.0    0.0    0.0    
0.0    
0.047779702528    0.10203272217    0.102112011265    0.102112122542    0.102112122706    
0.102112122705    0.102112122542    0.102112011223    0.10203272208    0.0477797019764    
0.000210751677069    0.000454590137652    0.000455157801641    0.000455158935469    0.000455158937547    
0.000455158778819    0.000455158777262    0.000455158004004    0.000454589024936    0.000210750556562    
5.07445477166e-07    1.08196579067e-06    1.08373476925e-06    1.08371755011e-06    1.08371744369e-06    
1.08371687404e-06    1.08371480394e-06    1.08280657144e-06    1.08412521073e-06    5.0682826441e-07    
1.43902399139e-09    1.57473163562e-09    2.34238663297e-09    1.98503646469e-09    2.32219444129e-09    
1.82563903231e-09    2.16044294984e-09    1.01383404631e-09    2.78119506344e-09    1.02385903105e-09    
4.17683819595e-10    -2.44660401349e-10    2.05705549642e-11    -1.09502066959e-12    -1.13476119258e-13    
-1.74640324417e-12    -2.47741440684e-12    -7.00620303191e-10    5.35535812353e-10    -8.10363973157e-11    
4.13815022661e-10    -2.52101727548e-10    1.75896107452e-10    1.55838104413e-10    1.55685866272e-10    
-3.52729888511e-12    -5.86079530389e-12    -6.2118671534e-10    6.13480733174e-10    -1.46267476141e-12    
-6.08068682497e-10    -2.41185067303e-09    -2.14498494176e-09    -2.16557747668e-09    -2.16573060749e-09    
-2.16614603454e-09    -2.16801091944e-09    -2.8644541757e-09    -1.62662838025e-09    -1.10357472753e-09    
-5.0649549059e-07    -1.08383372369e-06    -1.08308597185e-06    -1.08313009409e-06    -1.08313033145e-06    
-1.08323477346e-06    -1.08323695468e-06    -1.08384885948e-06    -1.08110944399e-06    -5.06061321129e-07    
-0.000210749890708    -0.000454588927684    -0.000455157702929    -0.000455159095722    -0.000455158839049    
-0.000455159098126    -0.000455158838951    -0.000455158586388    -0.000454590034326    -0.000210751432906    
-0.0477797020267    -0.102032722333    -0.102112011568    -0.102112122761    -0.102112123016    
-0.102112122925    -0.102112122854    -0.102112011948    -0.102032722067    -0.047779702528    

-0.0470727383743    -0.00021017725501    -5.06456544295e-07    -1.44809807401e-09    -4.27675452342e-10    
-4.24279808425e-10    5.96412501564e-10    5.05476482535e-07    0.000210175315909    0.0470727379675    
-0.102032618088    -0.000454590322035    -1.08195125582e-06    -1.55964879775e-09    5.97460466508e-10    
2.57459720341e-10    2.4158603763e-09    1.08370869303e-06    0.000454589004779    0.102032618501    
-0.102112011177    -0.000455157787181    -1.08424212361e-06    -2.35021679886e-09    -1.89773094903e-10    
-1.82617783298e-10    1.97507549081e-09    1.08276827941e-06    0.000455158157827    0.1021120115    
-0.102112122544    -0.000455158920407    -1.0837120569e-06    -1.96993089744e-09    3.44848901791e-10    
-1.50458633301e-10    2.16045999882e-09    1.08300601542e-06    0.000455159096455    0.102112123038    
-0.102112122707    -0.000455158767881    -1.08407001756e-06    -2.17519437897e-09    -1.4307772456e-11    
-7.56706575246e-12    2.15071721731e-09    1.08303967065e-06    0.000455158903046    0.102112123063    
-0.102112122707    -0.000455158767712    -1.08371096152e-06    -1.81448905875e-09    3.45943934998e-10    
5.00881200243e-12    2.16166859706e-09    1.08323472392e-06    0.00045515909785    0.102112123202    
-0.102112122543    -0.00045515876697    -1.08406805964e-06    -2.17281972922e-09    -1.23957798172e-11    
-5.04218577837e-12    2.15278066172e-09    1.08304242026e-06    0.000455158902954    0.1021121229    
-0.102112011144    -0.000455158304898    -1.08319302326e-06    -1.31585425081e-09    8.44503270856e-10    
6.21688341674e-10    2.77869435158e-09    1.08384851111e-06    0.000455158558973    0.10211201211    
-0.10203261796    -0.000454589526894    -1.08312041832e-06    -2.77888638463e-09    -5.07597163224e-10    
-6.13808614559e-10    1.65455705533e-09    1.08104909129e-06    0.000454590263093    0.102032617977    
-0.0470727378575    -0.000210175754169    -5.05969013644e-07    -8.57022090398e-10    1.08918282646e-10    
1.67107056983e-10    1.13026221685e-09    5.05395364296e-07    0.000210176805091    0.0470727383743    

3.97445386494e-17    1.21836384026e-18    2.47173710295e-17    2.74480356398e-17    2.07313027802e-17    
3.70230149549e-17    2.16173163967e-17    4.99742158645e-17    3.24182105901e-17    3.745804983e-18    
2.10744860982e-17    3.82079426737e-17    1.88015311758e-17    1.57585821986e-17    1.98589306219e-17    
1.64821087281e-17    2.53622265587e-17    2.84108684705e-17    1.97131661195e-17    4.45373271929e-17    
2.59629888365e-17    2.70046552876e-17    3.59783234452e-17    3.79571982391e-17    3.14560815244e-17    
2.74220206565e-17    2.26852109066e-17    2.09646791126e-17    2.0339438757e-17    3.61063665274e-17    
1.43385912397e-18    3.13778986247e-17    2.57151935925e-17    2.21660067616e-17    4.50984407007e-17    
2.08359195378e-17    2.07507817433e-17    2.0383140102e-17    2.82131339073e-17    3.03174288585e-17    
2.16028687978e-17    4.54789290366e-18    4.32716777741e-17    1.53244638223e-17    2.27776461744e-17    
2.97668966392e-17    2.67480085838e-17    1.51051523574e-17    2.37879428314e-17    1.86755116148e-17    
1.92032998359e-17    8.95876302314e-18    5.10664145083e-17    2.7450731964e-17    2.96715102586e-17    
1.46471316604e-17    1.93196656448e-17    4.37914173276e-17    1.45441150371e-17    1.30081593289e-17    
3.97404084365e-17    1.09434587102e-17    2.40874145966e-17    3.12034634448e-17    2.84393416698e-17    
3.28839910385e-17    2.99691399383e-17    2.07692601888e-17    3.29960622136e-17    1.52598984917e-17    
2.40113855149e-17    2.26866968948e-17    2.38109981719e-17    2.28318617837e-17    2.8243700563e-17    
2.90270678792e-17    2.36908868011e-17    1.94739827988e-17    2.10222538445e-17    3.03031734125e-17    
2.09691848438e-17    2.28124663848e-17    3.62276541823e-17    1.73480478879e-17    4.33362385421e-17    
3.83415260561e-17    2.58034518393e-17    2.07812834404e-17    1.43569248038e-17    2.22106083254e-17    
1.33730716763e-17    2.44084682718e-17    2.68315243364e-17    3.53704913417e-17    2.59474353072e-17    
3.73523339984e-17    2.8861622014e-17    2.61337322784e-17    8.7136946898e-18    2.96257138208e-17    

0.979054263538    0.974953233708    0.974754684448    0.974754183595    0.974754182644    
0.974754182644    0.974754183595    0.974754684656    0.974953233423    0.979054264721    
0.974954171754    1.00040375305    1.00020233883    1.00020180401    1.00020180299    
1.00020180309    1.00020180412    1.0002023393    1.00040375216    0.974954171025    
0.974754685739    1.00020233883    1.00000069806    1.00000016264    1.00000016162    
1.00000016162    1.00000016264    1.00000069782    1.00020233956    0.974754685213    
0.974754183586    1.00020180401    1.00000016263    0.999999627116    0.999999626189    
0.999999626194    0.99999962731    1.00000016233    1.00020180419    0.974754183096    
0.974754182635    1.00020180309    1.00000016171    0.999999626295    0.999999625274    
0.999999625274    0.999999626294    1.00000016157    1.00020180326    0.974754182324    
0.974754182635    1.00020180309    1.00000016161    0.99999962619    0.999999625169    
0.999999625268    0.999999626289    1.00000016149    1.00020180317    0.974754182144    
0.974754183587    1.00020180411    1.00000016273    0.999999627315    0.999999626294    
0.999999626294    0.999999627314    1.00000016259    1.00020180428    0.974754183274    
0.974754685523    1.00020233942    1.00000069786    1.00000016245    1.00000016143    
1.00000016149    1.00000016251    1.00000069771    1.00020233879    0.97475468451    
0.974954171742    1.00040375228    1.00020233915    1.00020180419    1.00020180329    
1.00020180317    1.0002018043    1.0002023388    1.00040375324    0.974954171575    
0.979054264825    0.974953233121    0.974754684236    0.974754183454    0.974754182384    
0.974754182503    0.974754183333    0.974754683831    0.974953233321    0.979054263538    

1.74826048744    1.50310811817    1.50231539318    1.50231366624    1.50231366293    
1.50231366293    1.50231366625    1.50231539391    1.50310811614    1.7482604913    
1.5031103063    1.00251389981    1.00126405793    1.00126147814    1.00126147317    
1.00126147423    1.0012614792    1.00126406105    1.00251389374    1.50311030208    
1.5023153963    1.00126405793    1.00001281973    1.00001023666    1.00001023168    
1.00001023168    1.00001023665    1.00001281676    1.0012640632    1.50231539447    
1.50231366621    1.00126147814    1.00001023661    1.0000076525    1.00000764855    
1.00000764858    1.00000765457    1.0000102333    1.00126148054    1.50231366397    
1.5023136629    1.00126147421    1.00001023272    1.00000764964    1.00000764467    
1.00000764466    1.00000764963    1.00001023026    1.00126147602    1.50231366129    
1.5023136629    1.00126147421    1.00001023164    1.00000764856    1.00000764358    
1.00000764464    1.00000764961    1.00001022981    1.00126147557    1.50231366064    
1.50231366622    1.00126147918    1.00001023768    1.0000076546    1.00000764963    
1.00000764963    1.00000765459    1.00001023523    1.00126148098    1.5023136646    
1.50231539607    1.00126406179    1.00001281706    1.00001023404    1.00001022907    
1.00001022981    1.00001023478    1.00001281498    1.00126405744    1.50231539034    
1.50311030514    1.00251389449    1.00126406108    1.00126148054    1.00126147617    
1.00126147557    1.00126148112    1.00126405765    1.00251390299    1.5031103058    
1.7482604916    1.50310811456    1.50231539192    1.50231366525    1.5023136615    
1.50231366193    1.50231366481    1.50231538885    1.50310811708    1.74826048744    

3.5990955716e-07    3.19536957358e-07    3.19453145598e-07    3.19452981108e-07    3.19452980789e-07    
3.1945298079e-07    3.19452981109e-07    3.19453145669e-07    3.19536957083e-07    3.59909557453e-07    
3.19537085111e-07    2.25412037895e-07    2.25221112029e-07    2.25220739539e-07    2.25220738821e-07    
2.25220738995e-07    2.25220739715e-07    2.2522111251e-07    2.25412036953e-07    3.19537084578e-07    
3.19453145794e-07    2.25221112029e-07    2.25029858038e-07    2.2502948481e-07    2.2502948409e-07    
2.2502948409e-07    2.25029484809e-07    2.25029857541e-07    2.25221112854e-07    3.19453145617e-07    
3.19452981106e-07    2.25220739539e-07    2.25029484803e-07    2.25029111402e-07    2.25029110852e-07    
2.25029110855e-07    2.25029111745e-07    2.25029484254e-07    2.25220739944e-07    3.19452980849e-07    
3.19452980786e-07    2.25220738991e-07    2.2502948426e-07    2.2502911103e-07    2.2502911031e-07    
2.25029110309e-07    2.25029111029e-07    2.25029483838e-07    2.25220739291e-07    3.19452980592e-07    
3.19452980786e-07    2.25220738992e-07    2.25029484083e-07    2.25029110852e-07    2.25029110132e-07    
2.25029110306e-07    2.25029111025e-07    2.25029483772e-07    2.25220739224e-07    3.19452980529e-07    
3.19452981106e-07    2.25220739711e-07    2.25029484979e-07    2.25029111749e-07    2.25029111029e-07    
2.25029111029e-07    2.25029111748e-07    2.25029484557e-07    2.25220740008e-07    3.1945298091e-07    
3.19453145811e-07    2.25221112624e-07    2.25029857589e-07    2.25029484368e-07    2.25029483648e-07    
2.25029483772e-07    2.25029484491e-07    2.25029857236e-07    2.25221111947e-07    3.19453145092e-07    
3.19537084914e-07    2.25412037067e-07    2.25221112544e-07    2.25220739943e-07    2.25220739313e-07    
2.25220739224e-07    2.2522074003e-07    2.25221111983e-07    2.25412038441e-07    3.19537085072e-07    
3.59909557472e-07    3.19536956892e-07    3.19453145437e-07    3.19452980974e-07    3.19452980613e-07    
3.19452980655e-07    3.19452980931e-07    3.19453145017e-07    3.19536957272e-07    3.5990955716e-07    

1.78566250365    1.54172330139    1.54122408145    1.54122310171    1.54122309981    
1.54122309981    1.54122310171    1.54122408188    1.54172329975    1.78566250544    
1.54172406237    1.00210929512    1.00106150432    1.00105946032    1.00105945638    
1.00105945733    1.00105946128    1.00106150696    1.00210928995    1.54172405919    
1.54122408262    1.00106150432    1.00001212166    1.00001007402    1.00001007006    
1.00001007006    1.00001007401    1.00001211893    1.00106150885    1.54122408156    
1.54122310169    1.00105946032    1.00001007398    1.00000802538    1.00000802237    
1.00000802239    1.00000802727    1.00001007096    1.00105946254    1.54122310016    
1.54122309979    1.00105945731    1.000010071    1.00000802334    1.0000080194    
1.00000801939    1.00000802334    1.00001006868    1.00105945896    1.54122309863    
1.54122309979    1.00105945732    1.00001007003    1.00000802237    1.00000801842    
1.00000801937    1.00000802332    1.00001006832    1.00105945859    1.54122309826    
1.54122310169    1.00105946127    1.00001007494    1.00000802729    1.00000802334    
1.00000802334    1.00000802728    1.00001007263    1.00105946289    1.54122310053    
1.54122408272    1.00106150758    1.0000121192    1.00001007159    1.00001006764    
1.00001006832    1.00001007227    1.00001211726    1.00106150387    1.54122407844    
1.5417240612    1.00210929058    1.00106150715    1.00105946254    1.00105945908    
1.00105945859    1.00105946301    1.00106150407    1.00210929812    1.54172406214    
1.78566250556    1.54172329861    1.54122408049    1.54122310091    1.54122309876    
1.54122309901    1.54122310065    1.54122407799    1.54172330088    1.78566250365    

1354.89946048    1312.08941454    1311.74148937    1311.74065693    1311.74065534    
1311.74065534    1311.74065693    1311.74148972    1312.08941389    1354.89946237    
1312.09080001    1240.53095105    1240.03469113    1240.03354701    1240.03354482    
1240.03354517    1240.03354736    1240.03469234    1240.53094872    1312.09079852    
1311.74149129    1240.03469113    1239.53766575    1239.53651984    1239.53651765    
1239.53651765    1239.53651984    1239.53766482    1240.03469311    1311.74149042    
1311.74065691    1240.03354701    1239.53651982    1239.53537357    1239.53537171    
1239.53537172    1239.53537425    1239.53651874    1240.03354776    1311.74065601    
1311.74065533    1240.03354516    1239.53651799    1239.53537207    1239.53536988    
1239.53536988    1239.53537207    1239.53651727    1240.03354575    1311.74065472    
1311.74065533    1240.03354516    1239.53651763    1239.53537171    1239.53536952    
1239.53536986    1239.53537206    1239.53651708    1240.03354556    1311.74065442    
1311.74065692    1240.03354735    1239.53652018    1239.53537427    1239.53537207    
1239.53537207    1239.53537426    1239.53651946    1240.03354794    1311.74065631    
1311.74149102    1240.03469264    1239.53766493    1239.53651904    1239.53651685    
1239.53651708    1239.53651927    1239.53766428    1240.03469098    1311.74148896    
1312.09079981    1240.53094902    1240.0346922    1240.03354775    1240.03354581    
1240.03354556    1240.033548    1240.03469103    1240.53095198    1312.09079973    
1354.89946253    1312.0894133    1311.74148893    1311.74065661    1311.74065482    
1311.74065502    1311.7406564    1311.74148798    1312.08941394    1354.89946048    

2     4     3     1     4     2     5     6     6     5     7     8     8     7     9     10     10     9     11     12     12     11     13     14     14     13     15     16     16     15     17     18     18     17     19     20     20     19     21     22     3     4     24     23     4     6     25     24     6     8     26     25     8     10     27     26     10     12     28     27     12     14     29     28     14     16     30     29     16     18     31     30     18     20     32     31     20     22     33     32     23     24     35     34     24     25     36     35     25     26     37     36     26     27     38     37     27     28     39     38     28     29     40     39     29     30     41     40     30     31     42     41     31     32     43     42     32     33     44     43     34     35     46     45     35     36     47     46     36     37     48     47     37     38     49     48     38     39     50     49     39     40     51     50     40     41     52     51     41     42     53     52     42     43     54     53     43     44     55     54     45     46     57     56     46     47     58     57     47     48     59     58     48     49     60     59     49     50     61     60     50     51     62     61     51     52     63     62     52     53     64     63     53     54     65     64     54     55     66     65     56     57     68     67     57     58     69     68     58     59     70     69     59     60     71     70     60     61     72     71     61     62     73     72     62     63     74     73     63     64     75     74     64     65     76     75     65     66     77     76     67     68     79     78     68     69     80     79     69     70     81     80     70     71     82     81     71     72     83     82     72     73     84     83     73     74     85     84     74     75     86     85     75     76     87     86     76     77     88     87     78     79     90     89     79     80     91     90     80     81     92     91     81     82     93     92     82     83     94     93     83     84     95     94     84     85     96     95     85     86     97     96     86     87     98     97     87     88     99     98     89     90     101     100     90     91     102     101     91     92     103     102     92     93     104     103     93     94     105     104     94     95     106     105     95     96     107     106     96     97     108     107     97     98     109     108     98     99     110     109     100     101     111     112     101     102     113     111     102     103     114     113     103     104     115     114     104     105     116     115     105     106     117     116     106     107     118     117     107     108     119     118     108     109     120     119     109     110     121     120     

