Title = " tecplot out file" 
variables = "x", "y", "z", "velX", "velY", "velZ","density","pressure","viscosity","temperature", "collisionFrequency",
Zone T = "nmesh0" N = 121 E = 100 DATAPACKING = BLOCK, VARLOCATION = ([4-11]=CELLCENTERED),  ZONETYPE=FEQUADRILATERAL 
0.0    
0.0    
0.1    
0.1    
0.0    

0.1    
0.0    
0.1    
0.0    
0.1    

0.0    
0.1    
0.0    
0.1    
0.0    

0.1    
0.0    
0.1    
0.0    
0.1    

0.0    
0.1    
0.2    
0.2    
0.2    

0.2    
0.2    
0.2    
0.2    
0.2    

0.2    
0.2    
0.2    
0.3    
0.3    

0.3    
0.3    
0.3    
0.3    
0.3    

0.3    
0.3    
0.3    
0.3    
0.4    

0.4    
0.4    
0.4    
0.4    
0.4    

0.4    
0.4    
0.4    
0.4    
0.4    

0.5    
0.5    
0.5    
0.5    
0.5    

0.5    
0.5    
0.5    
0.5    
0.5    

0.5    
0.6    
0.6    
0.6    
0.6    

0.6    
0.6    
0.6    
0.6    
0.6    

0.6    
0.6    
0.7    
0.7    
0.7    

0.7    
0.7    
0.7    
0.7    
0.7    

0.7    
0.7    
0.7    
0.8    
0.8    

0.8    
0.8    
0.8    
0.8    
0.8    

0.8    
0.8    
0.8    
0.8    
0.9    

0.9    
0.9    
0.9    
0.9    
0.9    

0.9    
0.9    
0.9    
0.9    
0.9    

1.0    
1.0    
1.0    
1.0    
1.0    

1.0    
1.0    
1.0    
1.0    
1.0    

1.0    
1.0    
0.9    
1.0    
0.9    
0.8    

0.8    
0.7    
0.7    
0.6    
0.6    

0.5    
0.5    
0.4    
0.4    
0.3    

0.3    
0.2    
0.2    
0.1    
0.1    

0.0    
0.0    
1.0    
0.9    
0.8    

0.7    
0.6    
0.5    
0.4    
0.3    

0.2    
0.1    
0.0    
1.0    
0.9    

0.8    
0.7    
0.6    
0.5    
0.4    

0.3    
0.2    
0.1    
0.0    
1.0    

0.9    
0.8    
0.7    
0.6    
0.5    

0.4    
0.3    
0.2    
0.1    
0.0    

1.0    
0.9    
0.8    
0.7    
0.6    

0.5    
0.4    
0.3    
0.2    
0.1    

0.0    
1.0    
0.9    
0.8    
0.7    

0.6    
0.5    
0.4    
0.3    
0.2    

0.1    
0.0    
1.0    
0.9    
0.8    

0.7    
0.6    
0.5    
0.4    
0.3    

0.2    
0.1    
0.0    
1.0    
0.9    

0.8    
0.7    
0.6    
0.5    
0.4    

0.3    
0.2    
0.1    
0.0    
1.0    

0.9    
0.8    
0.7    
0.6    
0.5    

0.4    
0.3    
0.2    
0.1    
0.0    

0.9    
1.0    
0.8    
0.7    
0.6    

0.5    
0.4    
0.3    
0.2    
0.1    

0.0    
0.0    0.0    0.0    0.0    0.0    
0.0    0.0    0.0    0.0    0.0    
0.0    0.0    0.0    0.0    0.0    
0.0    0.0    0.0    0.0    0.0    
0.0    0.0    0.0    0.0    0.0    
0.0    0.0    0.0    0.0    0.0    
0.0    0.0    0.0    0.0    0.0    
0.0    0.0    0.0    0.0    0.0    
0.0    0.0    0.0    0.0    0.0    
0.0    0.0    0.0    0.0    0.0    
0.0    0.0    0.0    0.0    0.0    
0.0    0.0    0.0    0.0    0.0    
0.0    0.0    0.0    0.0    0.0    
0.0    0.0    0.0    0.0    0.0    
0.0    0.0    0.0    0.0    0.0    
0.0    0.0    0.0    0.0    0.0    
0.0    0.0    0.0    0.0    0.0    
0.0    0.0    0.0    0.0    0.0    
0.0    0.0    0.0    0.0    0.0    
0.0    0.0    0.0    0.0    0.0    
0.0    0.0    0.0    0.0    0.0    
0.0    0.0    0.0    0.0    0.0    
0.0    0.0    0.0    0.0    0.0    
0.0    0.0    0.0    0.0    0.0    
0.0    
0.0497985591172    0.104303851774    0.104364028948    0.104364096794    0.104364096877    
0.104364096877    0.104364096794    0.104364028916    0.104303851698    0.049798558682    
0.000162359051681    0.000343346737199    0.000343693184341    0.000343693756608    0.000343693757497    
0.00034369363586    0.000343693635294    0.0003436933388    0.00034334588678    0.000162358185539    
3.12976675648e-07    6.5655094429e-07    6.57514581923e-07    6.57500128325e-07    6.57500061782e-07    
6.57499653733e-07    6.57498376196e-07    6.56804168172e-07    6.5820398683e-07    3.12500830044e-07    
8.470826263e-10    6.51004345855e-10    1.23831104914e-09    9.64162511106e-10    1.22264441803e-09    
8.42023387335e-10    1.09905127638e-09    2.21192737665e-10    1.573874615e-09    5.27345760016e-10    
3.20945302718e-10    -1.88551761624e-10    1.45139151107e-11    -2.04790374654e-12    -1.45594054002e-12    
-2.49920310222e-12    -2.96794554565e-12    -5.3668224707e-10    4.08614596566e-10    -6.29115301491e-11    
3.1923201269e-10    -1.91773550348e-10    1.36256224072e-10    1.20682698483e-10    1.20578908479e-10    
-1.43009189603e-12    -2.88767745818e-12    -4.73921621857e-10    4.70458440825e-10    -4.97350981358e-13    
-2.07242790009e-10    -1.29178778391e-09    -1.08696848137e-09    -1.10287248872e-09    -1.10297737524e-09    
-1.10327419531e-09    -1.10443978043e-09    -1.63710810121e-09    -6.91389342512e-10    -5.89026857449e-10    
-3.12244510878e-07    -6.579805446e-07    -6.57017387668e-07    -6.57050847882e-07    -6.57051004188e-07    
-6.57131084589e-07    -6.57132448544e-07    -6.57601994274e-07    -6.55896434671e-07    -3.11906610551e-07    
-0.000162357673473    -0.000343345812515    -0.000343693110158    -0.000343693878645    -0.000343693683022    
-0.000343693879786    -0.00034369368341    -0.000343693783576    -0.000343346659296    -0.000162358863134    
-0.0497985587207    -0.104303851892    -0.104364029181    -0.104364096962    -0.104364097116    
-0.104364097046    -0.104364097033    -0.104364029471    -0.104303851691    -0.0497985591172    

-0.0490692709306    -0.000161981772431    -3.12443677697e-07    -8.54594838088e-10    -3.28761349658e-10    
-3.27341444155e-10    1.98660190061e-10    3.11689961808e-07    0.000161980275197    0.049069270617    
-0.104303784294    -0.000343346786889    -6.56539682649e-07    -6.39443486211e-10    4.58951591322e-10    
1.95723478945e-10    1.29491232264e-09    6.57885098771e-07    0.000343345780065    0.104303784606    
-0.104364028913    -0.000343693173065    -6.57903418086e-07    -1.2440990165e-09    -1.44256724642e-10    
-1.41365584583e-10    9.56789332226e-10    6.56775384528e-07    0.000343693457518    0.104364029161    
-0.104364096795    -0.000343693745065    -6.57495782888e-07    -9.52584839331e-10    2.65563857437e-10    
-1.16717474008e-10    1.09906471131e-09    6.56955995872e-07    0.000343693879119    0.104364097175    
-0.104364096878    -0.000343693627477    -6.5777031709e-07    -1.1098163138e-09    -9.70609437788e-12    
-7.06365999645e-12    1.091449209e-09    6.56982988102e-07    0.000343693731719    0.104364097152    
-0.104364096878    -0.000343693627411    -6.57495055178e-07    -8.33539348038e-10    2.66288408218e-10    
2.34792838584e-12    1.09985946874e-09    6.5713105799e-07    0.000343693879638    0.104364097258    
-0.104364096795    -0.00034369362735    -6.5776905954e-07    -1.10830162343e-09    -8.47800738526e-12    
-5.45641851341e-12    1.09277050736e-09    6.56984741354e-07    0.00034369373211    0.104364097069    
-0.104364028887    -0.000343693568716    -6.57099388946e-07    -4.52080956328e-10    6.47701091556e-10    
4.74228400417e-10    1.5719539117e-09    6.57601775476e-07    0.000343693762956    0.104364029628    
-0.10430378419    -0.000343346179082    -6.57436273429e-07    -1.57244331609e-09    -3.87295962849e-10    
-4.70645552692e-10    7.12704279104e-10    6.55851360743e-07    0.000343346742448    0.104303784205    
-0.0490692705317    -0.000161980612355    -3.12068950851e-07    -3.99591742272e-10    8.42910771101e-11    
1.27776147592e-10    6.0993250965e-10    3.11623256891e-07    0.000161981423996    0.0490692709306    

3.68182685983e-17    2.14122853597e-17    1.0183722708e-17    1.98914315171e-17    2.62025059562e-18    
2.46040115609e-17    6.46869078362e-18    2.73170119258e-17    2.25402518267e-17    2.55645695867e-17    
1.92864074112e-17    2.66952042522e-17    3.21237912746e-17    2.18103110725e-17    2.92953227283e-17    
1.68109211564e-17    2.91651829019e-17    2.58340143969e-17    2.40225970875e-17    4.42201464282e-17    
1.83860718562e-17    2.66351802125e-17    2.25787016598e-17    2.35244302446e-17    3.56043058237e-17    
5.10625553901e-17    2.04149050171e-17    4.05053755847e-17    2.02678596517e-17    3.61378109952e-17    
1.40789733475e-17    4.44189510951e-17    3.14080161703e-17    3.02617610071e-17    3.07305446987e-17    
3.84310217836e-17    3.04750588165e-17    3.11138572155e-17    2.83905892808e-17    2.76184958124e-17    
2.55443680941e-17    4.01480632386e-17    2.37430463866e-17    2.15825211528e-17    3.05815581234e-17    
6.89344053397e-18    2.27520668099e-17    2.12344633711e-17    1.51043314284e-17    7.97816733415e-18    
2.17450721379e-17    2.48295726016e-17    2.89562329796e-17    3.38557025113e-17    4.01084770586e-18    
2.11887460993e-17    5.3037115391e-18    4.51499750794e-17    2.39042838008e-17    1.38859010738e-17    
3.29912676438e-17    2.35031503933e-17    1.85645755317e-17    1.08575276171e-17    3.16801234712e-17    
3.06493257513e-17    3.2003516245e-17    1.39409564257e-17    2.74082506166e-17    2.66634351543e-17    
2.10037378612e-17    2.75800669765e-17    2.96850749666e-17    2.2492029918e-17    3.74882502629e-17    
1.96065540645e-17    3.22225602958e-17    2.60974222128e-17    3.10722325855e-17    2.94660038728e-17    
1.95891811202e-17    2.17336171542e-17    3.26372211304e-17    1.86744359538e-17    1.88809588395e-17    
3.20234846153e-17    1.54674628561e-17    3.57019178426e-17    2.35254152902e-17    2.28691528069e-17    
2.53579683174e-17    2.78646477137e-17    4.35320965682e-17    3.09855293845e-17    3.00724459658e-17    
2.96829589382e-17    2.4069216164e-17    2.88385181744e-17    2.82269676401e-17    1.9236578923e-17    

0.984312814909    0.980871233779    0.980720979686    0.980720673607    0.980720673121    
0.980720673121    0.980720673608    0.980720979844    0.980871233554    0.984312815769    
0.980871844645    1.00030653021    1.00015345459    1.00015313161    1.00015313109    
1.00015313117    1.00015313169    1.00015345495    1.00030652952    0.980871844095    
0.980720980393    1.00015345459    1.00000023251    0.999999909214    0.999999908698    
0.999999908698    0.999999909213    1.00000023233    1.00015345515    0.980720979996    
0.980720673601    1.00015313161    0.999999909207    0.999999585836    0.999999585393    
0.999999585396    0.999999585985    0.999999908977    1.00015313175    0.980720673238    
0.980720673113    1.00015313117    0.999999908771    0.999999585473    0.999999584958    
0.999999584957    0.999999585473    0.999999908664    1.00015313129    0.980720672885    
0.980720673113    1.00015313117    0.999999908691    0.999999585393    0.999999584877    
0.999999584954    0.999999585469    0.9999999086    1.00015313123    0.98072067275    
0.980720673601    1.00015313168    0.999999909287    0.999999585989    0.999999585473    
0.999999585473    0.999999585988    0.99999990918    1.00015313181    0.98072067337    
0.980720980225    1.00015345505    1.00000023236    0.999999909072    0.999999908556    
0.999999908599    0.999999909115    1.00000023224    1.00015345456    0.98072097947    
0.980871844629    1.00030652962    1.00015345484    1.00015313175    1.00015313132    
1.00015313123    1.00015313183    1.00015345456    1.00030653035    0.980871844504    
0.984312815845    0.98087123333    0.980720979532    0.980720673505    0.98072067293    
0.980720673018    0.980720673415    0.980720979228    0.980871233478    0.984312814909    

1.74858342948    1.5004982425    1.49989264897    1.49989158723    1.49989158553    
1.49989158553    1.49989158724    1.49989264953    1.50049824092    1.74858343237    
1.50049966659    1.00189680779    1.00095403342    1.00095246401    1.00095246148    
1.00095246228    1.00095246482    1.0009540358    1.00189680316    1.50049966335    
1.49989265061    1.00095403342    1.00001038861    1.00000881749    1.00000881495    
1.00000881495    1.00000881748    1.00001038634    1.00095403744    1.49989264921    
1.49989158721    1.00095246401    1.00000881745    1.00000724554    1.00000724379    
1.0000072438    1.00000724713    1.00000881492    1.00095246584    1.4998915855    
1.4998915855    1.00095246226    1.00000881574    1.00000724461    1.00000724208    
1.00000724207    1.00000724461    1.00000881386    1.00095246365    1.49989158428    
1.4998915855    1.00095246227    1.00000881491    1.00000724379    1.00000724125    
1.00000724206    1.00000724459    1.00000881352    1.0009524633    1.49989158379    
1.49989158721    1.00095246481    1.00000881827    1.00000724715    1.00000724461    
1.00000724461    1.00000724714    1.0000088164    1.00095246618    1.49989158598    
1.49989265043    1.00095403637    1.00001038657    1.00000881549    1.00000881295    
1.00000881352    1.00000881605    1.00001038498    1.00095403305    1.49989264605    
1.50049966568    1.00189680373    1.00095403583    1.00095246584    1.00095246376    
1.0009524633    1.00095246629    1.0009540332    1.00189681021    1.5004996662    
1.74858343259    1.50049823972    1.49989264801    1.49989158647    1.49989158444    
1.49989158476    1.49989158615    1.49989264566    1.50049824166    1.74858342948    

3.58404942134e-07    3.1752718369e-07    3.1746276742e-07    3.17462665647e-07    3.17462665482e-07    
3.17462665482e-07    3.17462665647e-07    3.17462767475e-07    3.17527183478e-07    3.5840494236e-07    
3.17527267613e-07    2.25317379739e-07    2.25173538538e-07    2.25173311464e-07    2.25173311096e-07    
2.25173311229e-07    2.25173311598e-07    2.25173538905e-07    2.2531737902e-07    3.17527267203e-07    
3.17462767515e-07    2.25173538538e-07    2.25029499771e-07    2.25029272328e-07    2.25029271959e-07    
2.25029271959e-07    2.25029272327e-07    2.2502949939e-07    2.25173539169e-07    3.1746276738e-07    
3.17462665645e-07    2.25173311464e-07    2.25029272323e-07    2.25029044749e-07    2.2502904451e-07    
2.25029044513e-07    2.25029045011e-07    2.25029271903e-07    2.25173311774e-07    3.17462665447e-07    
3.1746266548e-07    2.25173311227e-07    2.2502927209e-07    2.25029044646e-07    2.25029044278e-07    
2.25029044277e-07    2.25029044646e-07    2.25029271767e-07    2.25173311455e-07    3.1746266533e-07    
3.1746266548e-07    2.25173311227e-07    2.25029271954e-07    2.2502904451e-07    2.25029044142e-07    
2.25029044275e-07    2.25029044643e-07    2.25029271717e-07    2.25173311405e-07    3.17462665282e-07    
3.17462665645e-07    2.25173311596e-07    2.25029272458e-07    2.25029045014e-07    2.25029044646e-07    
2.25029044645e-07    2.25029045013e-07    2.25029272135e-07    2.25173311822e-07    3.17462665495e-07    
3.17462767529e-07    2.25173538992e-07    2.25029499427e-07    2.2502927199e-07    2.25029271622e-07    
2.25029271717e-07    2.25029272085e-07    2.25029499158e-07    2.25173538476e-07    3.17462766975e-07    
3.17527267461e-07    2.25317379107e-07    2.25173538932e-07    2.25173311773e-07    2.25173311472e-07    
2.25173311405e-07    2.25173311839e-07    2.25173538503e-07    2.25317380155e-07    3.17527267584e-07    
3.58404942374e-07    3.17527183331e-07    3.17462767296e-07    3.17462665544e-07    3.17462665347e-07    
3.17462665378e-07    3.17462665511e-07    3.17462766972e-07    3.17527183624e-07    3.58404942134e-07    

1.77645094425    1.52976067686    1.52937754982    1.52937694452    1.52937694354    
1.52937694354    1.52937694453    1.52937755015    1.5297606756    1.77645094563    
1.52976117602    1.00158979026    1.000800456    1.00079921002    1.000799208    
1.00079920873    1.00079921075    1.00080045801    1.00158978632    1.52976117358    
1.52937755039    1.000800456    1.0000101561    1.00000890828    1.00000890625    
1.00000890625    1.00000890827    1.00001015401    1.00080045946    1.52937754958    
1.52937694451    1.00079921002    1.00000890825    1.00000765971    1.0000076584    
1.00000765841    1.00000766115    1.00000890594    1.00079921171    1.52937694334    
1.52937694353    1.00079920871    1.00000890697    1.00000765914    1.00000765712    
1.00000765712    1.00000765914    1.0000089052    1.00079920997    1.52937694264    
1.52937694353    1.00079920872    1.00000890622    1.0000076584    1.00000765638    
1.0000076571    1.00000765913    1.00000890492    1.00079920969    1.52937694235    
1.52937694451    1.00079921074    1.00000890899    1.00000766116    1.00000765914    
1.00000765914    1.00000766116    1.00000890722    1.00079921198    1.52937694362    
1.52937755047    1.00080045849    1.00001015421    1.00000890642    1.0000089044    
1.00000890492    1.00000890694    1.00001015273    1.00080045566    1.52937754718    
1.52976117512    1.0015897868    1.00080045816    1.00079921171    1.00079921006    
1.00079920969    1.00079921207    1.00080045581    1.00158979254    1.52976117585    
1.77645094572    1.52976067473    1.52937754908    1.52937694391    1.52937694274    
1.52937694293    1.52937694371    1.52937754716    1.52976067647    1.77645094425    

1360.83877623    1318.10159798    1317.83696646    1317.83645607    1317.83645525    
1317.83645525    1317.83645607    1317.83696672    1318.10159747    1360.83877762    
1318.10250058    1240.28818797    1239.91264227    1239.91194857    1239.91194745    
1239.91194772    1239.91194884    1239.91264319    1240.28818619    1318.10249945    
1317.8369675    1239.91264227    1239.53662578    1239.53593117    1239.53593006    
1239.53593005    1239.53593117    1239.53662507    1239.91264378    1317.83696683    
1317.83645605    1239.91194857    1239.53593115    1239.53523628    1239.53523542    
1239.53523543    1239.53523681    1239.53593033    1239.91194914    1317.83645538    
1317.83645524    1239.91194771    1239.53593031    1239.5352357    1239.53523458    
1239.53523458    1239.5352357    1239.53592976    1239.91194816    1317.83645479    
1317.83645524    1239.91194771    1239.53593004    1239.53523542    1239.53523431    
1239.53523458    1239.53523569    1239.53592962    1239.91194802    1317.83645456    
1317.83645606    1239.91194883    1239.53593143    1239.53523681    1239.5352357    
1239.5352357    1239.53523681    1239.53593088    1239.91194928    1317.8364556    
1317.83696729    1239.91264342    1239.53662515    1239.53593056    1239.53592944    
1239.53592962    1239.53593073    1239.53662466    1239.91264215    1317.83696573    
1318.10250042    1240.28818642    1239.91264309    1239.91194913    1239.91194821    
1239.91194802    1239.91194932    1239.91264219    1240.28818868    1318.10250037    
1360.83877774    1318.10159703    1317.83696613    1317.83645583    1317.83645486    
1317.83645501    1317.83645567    1317.8369654    1318.10159751    1360.83877623    

2     4     3     1     4     2     5     6     6     5     7     8     8     7     9     10     10     9     11     12     12     11     13     14     14     13     15     16     16     15     17     18     18     17     19     20     20     19     21     22     3     4     24     23     4     6     25     24     6     8     26     25     8     10     27     26     10     12     28     27     12     14     29     28     14     16     30     29     16     18     31     30     18     20     32     31     20     22     33     32     23     24     35     34     24     25     36     35     25     26     37     36     26     27     38     37     27     28     39     38     28     29     40     39     29     30     41     40     30     31     42     41     31     32     43     42     32     33     44     43     34     35     46     45     35     36     47     46     36     37     48     47     37     38     49     48     38     39     50     49     39     40     51     50     40     41     52     51     41     42     53     52     42     43     54     53     43     44     55     54     45     46     57     56     46     47     58     57     47     48     59     58     48     49     60     59     49     50     61     60     50     51     62     61     51     52     63     62     52     53     64     63     53     54     65     64     54     55     66     65     56     57     68     67     57     58     69     68     58     59     70     69     59     60     71     70     60     61     72     71     61     62     73     72     62     63     74     73     63     64     75     74     64     65     76     75     65     66     77     76     67     68     79     78     68     69     80     79     69     70     81     80     70     71     82     81     71     72     83     82     72     73     84     83     73     74     85     84     74     75     86     85     75     76     87     86     76     77     88     87     78     79     90     89     79     80     91     90     80     81     92     91     81     82     93     92     82     83     94     93     83     84     95     94     84     85     96     95     85     86     97     96     86     87     98     97     87     88     99     98     89     90     101     100     90     91     102     101     91     92     103     102     92     93     104     103     93     94     105     104     94     95     106     105     95     96     107     106     96     97     108     107     97     98     109     108     98     99     110     109     100     101     111     112     101     102     113     111     102     103     114     113     103     104     115     114     104     105     116     115     105     106     117     116     106     107     118     117     107     108     119     118     108     109     120     119     109     110     121     120     

