Title = " tecplot file for 2D Cavity problem " 
variables = "x", "y", "z", "velX", "cellCentroidY" 
Zone T = "nmesh0" N = 292 E = 257 DATAPACKING = BLOCK, VARLOCATION = ([4-5]=CELLCENTERED),  ZONETYPE=FEQUADRILATERAL 
0.96875    1.0    0.96875    1.0    0.96875    
1.0    0.96875    1.0    0.96875    1.0    
0.96875    1.0    0.96875    1.0    0.96875    
1.0    0.96875    1.0    0.96875    1.0    
0.96875    1.0    0.96875    1.0    0.96875    
1.0    0.96875    1.0    0.96875    1.0    
0.96875    1.0    0.96875    1.0    0.96875    
0.9375    0.9375    0.9375    0.9375    0.9375    
0.9375    0.9375    0.9375    0.9375    0.9375    
0.9375    0.9375    0.9375    0.9375    0.9375    
0.9375    0.9375    0.9375    0.90625    0.90625    
0.90625    0.90625    0.90625    0.90625    0.90625    
0.90625    0.90625    0.90625    0.90625    0.90625    
0.90625    0.90625    0.90625    0.90625    0.90625    
0.90625    0.875    0.875    0.875    0.875    
0.875    0.875    0.875    0.875    0.875    
0.875    0.875    0.875    0.875    0.875    
0.875    0.875    0.875    0.875    0.84375    
0.84375    0.84375    0.84375    0.84375    0.84375    
0.84375    0.84375    0.84375    0.84375    0.84375    
0.84375    0.84375    0.84375    0.84375    0.84375    
0.84375    0.8125    0.8125    0.8125    0.8125    
0.8125    0.8125    0.8125    0.8125    0.8125    
0.8125    0.8125    0.8125    0.8125    0.8125    
0.8125    0.8125    0.8125    0.78125    0.78125    
0.78125    0.78125    0.78125    0.78125    0.78125    
0.78125    0.78125    0.78125    0.78125    0.78125    
0.78125    0.78125    0.78125    0.78125    0.78125    
0.75    0.75    0.75    0.75    0.75    
0.75    0.75    0.75    0.75    0.75    
0.75    0.75    0.75    0.75    0.75    
0.75    0.75    0.71875    0.71875    0.71875    
0.71875    0.71875    0.71875    0.71875    0.71875    
0.71875    0.71875    0.71875    0.71875    0.71875    
0.71875    0.71875    0.71875    0.71875    0.6875    
0.6875    0.6875    0.6875    0.6875    0.6875    
0.6875    0.6875    0.6875    0.6875    0.6875    
0.6875    0.6875    0.6875    0.6875    0.6875    
0.6875    0.65625    0.65625    0.65625    0.65625    
0.65625    0.65625    0.65625    0.65625    0.65625    
0.65625    0.65625    0.65625    0.65625    0.65625    
0.65625    0.65625    0.65625    0.625    0.625    
0.625    0.625    0.625    0.625    0.625    
0.625    0.625    0.625    0.625    0.625    
0.625    0.625    0.625    0.625    0.625    
0.59375    0.59375    0.59375    0.59375    0.59375    
0.59375    0.59375    0.59375    0.59375    0.59375    
0.59375    0.59375    0.59375    0.59375    0.59375    
0.59375    0.59375    0.5625    0.5625    0.5625    
0.5625    0.5625    0.5625    0.5625    0.5625    
0.5625    0.5625    0.5625    0.5625    0.5625    
0.5625    0.5625    0.5625    0.5625    0.53125    
0.53125    0.53125    0.53125    0.53125    0.53125    
0.53125    0.53125    0.53125    0.53125    0.53125    
0.53125    0.53125    0.53125    0.5    0.5    
0.5    0.5    0.5    0.5    0.5    
0.5    0.5    0.5    0.5    0.5    
0.5    0.46875    0.46875    0.46875    0.46875    
0.46875    1.0    
0.53125    0.53125    0.5    0.5    0.46875    
0.46875    0.4375    0.4375    0.40625    0.40625    
0.375    0.375    0.34375    0.34375    0.3125    
0.3125    0.28125    0.28125    0.25    0.25    
0.21875    0.21875    0.1875    0.1875    0.15625    
0.15625    0.125    0.125    0.09375    0.09375    
0.0625    0.0625    0.03125    0.03125    0.0    
0.53125    0.5    0.46875    0.4375    0.40625    
0.375    0.34375    0.3125    0.28125    0.25    
0.21875    0.1875    0.15625    0.125    0.09375    
0.0625    0.03125    0.0    0.53125    0.5    
0.46875    0.4375    0.40625    0.375    0.34375    
0.3125    0.28125    0.25    0.21875    0.1875    
0.15625    0.125    0.09375    0.0625    0.03125    
0.0    0.53125    0.5    0.46875    0.4375    
0.40625    0.375    0.34375    0.3125    0.28125    
0.25    0.21875    0.1875    0.15625    0.125    
0.09375    0.0625    0.03125    0.0    0.5    
0.46875    0.4375    0.40625    0.375    0.34375    
0.3125    0.28125    0.25    0.21875    0.1875    
0.15625    0.125    0.09375    0.0625    0.03125    
0.0    0.5    0.46875    0.4375    0.40625    
0.375    0.34375    0.3125    0.28125    0.25    
0.21875    0.1875    0.15625    0.125    0.09375    
0.0625    0.03125    0.0    0.5    0.46875    
0.4375    0.40625    0.375    0.34375    0.3125    
0.28125    0.25    0.21875    0.1875    0.15625    
0.125    0.09375    0.0625    0.03125    0.0    
0.5    0.46875    0.4375    0.40625    0.375    
0.34375    0.3125    0.28125    0.25    0.21875    
0.1875    0.15625    0.125    0.09375    0.0625    
0.03125    0.0    0.5    0.46875    0.4375    
0.40625    0.375    0.34375    0.3125    0.28125    
0.25    0.21875    0.1875    0.15625    0.125    
0.09375    0.0625    0.03125    0.0    0.5    
0.46875    0.4375    0.40625    0.375    0.34375    
0.3125    0.28125    0.25    0.21875    0.1875    
0.15625    0.125    0.09375    0.0625    0.03125    
0.0    0.5    0.46875    0.4375    0.40625    
0.375    0.34375    0.3125    0.28125    0.25    
0.21875    0.1875    0.15625    0.125    0.09375    
0.0625    0.03125    0.0    0.5    0.46875    
0.4375    0.40625    0.375    0.34375    0.3125    
0.28125    0.25    0.21875    0.1875    0.15625    
0.125    0.09375    0.0625    0.03125    0.0    
0.5    0.46875    0.4375    0.40625    0.375    
0.34375    0.3125    0.28125    0.25    0.21875    
0.1875    0.15625    0.125    0.09375    0.0625    
0.03125    0.0    0.5    0.46875    0.4375    
0.40625    0.375    0.34375    0.3125    0.28125    
0.25    0.21875    0.1875    0.15625    0.125    
0.09375    0.0625    0.03125    0.0    0.40625    
0.375    0.34375    0.3125    0.28125    0.25    
0.21875    0.1875    0.15625    0.125    0.09375    
0.0625    0.03125    0.0    0.40625    0.375    
0.34375    0.3125    0.28125    0.25    0.21875    
0.1875    0.15625    0.125    0.09375    0.0625    
0.03125    0.3125    0.28125    0.25    0.21875    
0.1875    0.0    
0.0    0.0    0.0    0.0    0.0    
0.0    0.0    0.0    0.0    0.0    
0.0    0.0    0.0    0.0    0.0    
0.0    0.0    0.0    0.0    0.0    
0.0    0.0    0.0    0.0    0.0    
0.0    0.0    0.0    0.0    0.0    
0.0    0.0    0.0    0.0    0.0    
0.0    0.0    0.0    0.0    0.0    
0.0    0.0    0.0    0.0    0.0    
0.0    0.0    0.0    0.0    0.0    
0.0    0.0    0.0    0.0    0.0    
0.0    0.0    0.0    0.0    0.0    
0.0    0.0    0.0    0.0    0.0    
0.0    0.0    0.0    0.0    0.0    
0.0    0.0    0.0    0.0    0.0    
0.0    0.0    0.0    0.0    0.0    
0.0    0.0    0.0    0.0    0.0    
0.0    0.0    0.0    0.0    0.0    
0.0    0.0    0.0    0.0    0.0    
0.0    0.0    0.0    0.0    0.0    
0.0    0.0    0.0    0.0    0.0    
0.0    0.0    0.0    0.0    0.0    
0.0    0.0    0.0    0.0    0.0    
0.0    0.0    0.0    0.0    0.0    
0.0    0.0    0.0    0.0    0.0    
0.0    0.0    0.0    0.0    0.0    
0.0    0.0    0.0    0.0    0.0    
0.0    0.0    0.0    0.0    0.0    
0.0    0.0    0.0    0.0    0.0    
0.0    0.0    0.0    0.0    0.0    
0.0    0.0    0.0    0.0    0.0    
0.0    0.0    0.0    0.0    0.0    
0.0    0.0    0.0    0.0    0.0    
0.0    0.0    0.0    0.0    0.0    
0.0    0.0    0.0    0.0    0.0    
0.0    0.0    0.0    0.0    0.0    
0.0    0.0    0.0    0.0    0.0    
0.0    0.0    0.0    0.0    0.0    
0.0    0.0    0.0    0.0    0.0    
0.0    0.0    0.0    0.0    0.0    
0.0    0.0    0.0    0.0    0.0    
0.0    0.0    0.0    0.0    0.0    
0.0    0.0    0.0    0.0    0.0    
0.0    0.0    0.0    0.0    0.0    
0.0    0.0    0.0    0.0    0.0    
0.0    0.0    0.0    0.0    0.0    
0.0    0.0    0.0    0.0    0.0    
0.0    0.0    0.0    0.0    0.0    
0.0    0.0    0.0    0.0    0.0    
0.0    0.0    0.0    0.0    0.0    
0.0    0.0    0.0    0.0    0.0    
0.0    0.0    0.0    0.0    0.0    
0.0    0.0    0.0    0.0    0.0    
0.0    0.0    0.0    0.0    0.0    
0.0    0.0    0.0    0.0    0.0    
0.0    0.0    0.0    0.0    0.0    
0.0    0.0    0.0    0.0    0.0    
0.0    0.0    0.0    0.0    0.0    
0.0    0.0    
5.53490182533    4.92853696396    16.5274706295    4.38699133186    14.7207916577    
3.90034626109    13.1060734329    3.46052508181    11.6542148896    3.06083307184    
10.3414460747    2.69562784895    9.14801242707    2.36007883514    8.05722733727    
2.04998857989    7.05477774575    1.76165768194    6.12820638222    1.49178081053    
5.26651901835    1.23736514139    4.4598812294    0.995665052161    3.69937984358    
0.764128666302    2.97683145349    0.540353003262    2.28462527571    0.322045326813    
1.61559102396    0.106988827653    0.962884803164    0.319887640572    27.2917846472    
24.3210855811    21.6622958495    19.2689937837    17.1030318959    15.1325432215    
13.330491325    11.6735984265    10.1415401836    8.71633077868    7.3818452446    
6.12344154969    4.92765564299    3.78194995989    2.67450101529    1.59401522354    
0.529564574273    37.6867055437    33.6094701394    29.9530305924    26.6564324889    
23.6691444958    20.9486372332    18.4585963109    16.167584449    14.0480251448    
12.0754186667    10.2277274199    8.4848854678    6.82839961001    5.24101790753    
3.70644785667    2.20911050532    0.733920012036    42.477058735    37.8839238755    
33.7345610757    29.9684763514    26.5342649003    23.3876722265    20.4901179145    
17.8075572719    15.3095913269    12.9687602948    10.7599732975    8.66003941813    
6.64727421169    4.70116199787    2.80205894062    0.930924983356    50.8287152849    
45.3710450444    40.4294115734    35.9359349222    31.8322737762    28.0677097775    
24.5976577016    21.3824947026    18.3866290683    15.5777491387    12.926208006    
10.4045105597    7.98687752333    5.6488669916    3.36703828539    1.11864596598    
58.5844312388    52.3421293693    46.6761052382    41.5135779701    36.7911854925    
32.4532353982    28.4503084063    24.7381347653    21.2766811034    18.0293991857    
14.9625990294    12.0449172943    9.24685833462    6.54039016878    3.89858125103    
1.29526656378    65.679467404    58.7369358699    52.4193020253    46.651086207    
41.3656548115    36.5037379077    32.0122057538    27.8430548453    23.9525613926    
20.3005674713    16.8498716337    13.5657012569    10.4152483575    7.36725410681    
4.3916299973    1.45910560401    72.0634830895    64.5068445825    57.613080769    
51.3058099977    45.5166096228    40.183855657    35.2517218488    30.6693174652    
26.3899421485    22.3704376736    18.5706187794    14.9527677469    11.4811797374    
8.12174791554    4.84157903714    1.60863146242    77.6989475907    69.6138784891    
62.2203664511    55.4424633651    49.2111180064    43.4633532369    38.1415085108    
33.1925510131    28.5674520603    24.2206222958    20.1093980663    16.1935712187    
12.4349549372    8.79697879293    5.24430678761    1.74247267404    82.5591368135    
74.0293552051    66.2120431578    59.0325589744    52.422045779    46.3169307591    
40.6584079342    35.3919260103    30.466692781    25.8352013837    21.4527799743    
17.2771641305    13.2680900079    9.38690554663    5.59619665923    1.85942512477    
86.6259819558    77.7323622178    69.5658919737    62.0536835604    55.1275753513    
48.7239160694    42.7832664445    37.2500523055    32.0721916662    27.2007104839    
22.5893563199    18.194215327    13.9733354261    9.88635674172    5.89414919567    
1.95845629496    89.8879801714    80.7082195774    72.265478928    64.4887079043    
57.310655969    50.6678917018    44.5006894536    38.7528250921    33.3713110899    
28.3060925653    23.5097194974    18.9370054382    14.5446796372    10.2910368174    
6.13558710372    2.03870716228    92.3383165991    82.9470568143    74.2990962239    
66.3250131245    58.9584488911    52.1363052879    45.7987745572    39.8892475081    
34.3541350304    29.1426291888    24.2064236689    19.4994072979    14.9773408783    
10.5975238072    6.3184552657    2.09949242282    67.5537993201    60.0618211354    
53.1201059939    46.6688559408    40.6512553553    35.0133523092    29.7038655044    
24.6739386776    19.8768592308    15.2677527675    10.8032623106    6.44121773944    
2.14029970533    68.1695271892    60.6149301903    53.6134415677    47.1052878493    
41.0335656328    35.344153349    29.9855418213    24.9086063257    20.0663381734    
15.4135486808    10.9065549419    6.50285370549    47.1052881216    41.033565942    
35.344153642    29.9855420867    
0.515625    0.484375    0.515625    0.453125    0.484375    
0.421875    0.453125    0.390625    0.421875    0.359375    
0.390625    0.328125    0.359375    0.296875    0.328125    
0.265625    0.296875    0.234375    0.265625    0.203125    
0.234375    0.171875    0.203125    0.140625    0.171875    
0.109375    0.140625    0.078125    0.109375    0.046875    
0.078125    0.015625    0.046875    0.015625    0.515625    
0.484375    0.453125    0.421875    0.390625    0.359375    
0.328125    0.296875    0.265625    0.234375    0.203125    
0.171875    0.140625    0.109375    0.078125    0.046875    
0.015625    0.515625    0.484375    0.453125    0.421875    
0.390625    0.359375    0.328125    0.296875    0.265625    
0.234375    0.203125    0.171875    0.140625    0.109375    
0.078125    0.046875    0.015625    0.484375    0.453125    
0.421875    0.390625    0.359375    0.328125    0.296875    
0.265625    0.234375    0.203125    0.171875    0.140625    
0.109375    0.078125    0.046875    0.015625    0.484375    
0.453125    0.421875    0.390625    0.359375    0.328125    
0.296875    0.265625    0.234375    0.203125    0.171875    
0.140625    0.109375    0.078125    0.046875    0.015625    
0.484375    0.453125    0.421875    0.390625    0.359375    
0.328125    0.296875    0.265625    0.234375    0.203125    
0.171875    0.140625    0.109375    0.078125    0.046875    
0.015625    0.484375    0.453125    0.421875    0.390625    
0.359375    0.328125    0.296875    0.265625    0.234375    
0.203125    0.171875    0.140625    0.109375    0.078125    
0.046875    0.015625    0.484375    0.453125    0.421875    
0.390625    0.359375    0.328125    0.296875    0.265625    
0.234375    0.203125    0.171875    0.140625    0.109375    
0.078125    0.046875    0.015625    0.484375    0.453125    
0.421875    0.390625    0.359375    0.328125    0.296875    
0.265625    0.234375    0.203125    0.171875    0.140625    
0.109375    0.078125    0.046875    0.015625    0.484375    
0.453125    0.421875    0.390625    0.359375    0.328125    
0.296875    0.265625    0.234375    0.203125    0.171875    
0.140625    0.109375    0.078125    0.046875    0.015625    
0.484375    0.453125    0.421875    0.390625    0.359375    
0.328125    0.296875    0.265625    0.234375    0.203125    
0.171875    0.140625    0.109375    0.078125    0.046875    
0.015625    0.484375    0.453125    0.421875    0.390625    
0.359375    0.328125    0.296875    0.265625    0.234375    
0.203125    0.171875    0.140625    0.109375    0.078125    
0.046875    0.015625    0.484375    0.453125    0.421875    
0.390625    0.359375    0.328125    0.296875    0.265625    
0.234375    0.203125    0.171875    0.140625    0.109375    
0.078125    0.046875    0.015625    0.390625    0.359375    
0.328125    0.296875    0.265625    0.234375    0.203125    
0.171875    0.140625    0.109375    0.078125    0.046875    
0.015625    0.390625    0.359375    0.328125    0.296875    
0.265625    0.234375    0.203125    0.171875    0.140625    
0.109375    0.078125    0.046875    0.296875    0.265625    
0.234375    0.203125    
3     4     2     1     
4     3     5     6     
3     1     36     37     
6     5     7     8     
5     3     37     38     
8     7     9     10     
7     5     38     39     
10     9     11     12     
9     7     39     40     
12     11     13     14     
11     9     40     41     
14     13     15     16     
13     11     41     42     
16     15     17     18     
15     13     42     43     
18     17     19     20     
17     15     43     44     
20     19     21     22     
19     17     44     45     
22     21     23     24     
21     19     45     46     
24     23     25     26     
23     21     46     47     
26     25     27     28     
25     23     47     48     
28     27     29     30     
27     25     48     49     
30     29     31     32     
29     27     49     50     
32     31     33     34     
31     29     50     51     
34     33     35     292     
33     31     51     52     
35     33     52     53     
37     36     54     55     
38     37     55     56     
39     38     56     57     
40     39     57     58     
41     40     58     59     
42     41     59     60     
43     42     60     61     
44     43     61     62     
45     44     62     63     
46     45     63     64     
47     46     64     65     
48     47     65     66     
49     48     66     67     
50     49     67     68     
51     50     68     69     
52     51     69     70     
53     52     70     71     
55     54     72     73     
56     55     73     74     
57     56     74     75     
58     57     75     76     
59     58     76     77     
60     59     77     78     
61     60     78     79     
62     61     79     80     
63     62     80     81     
64     63     81     82     
65     64     82     83     
66     65     83     84     
67     66     84     85     
68     67     85     86     
69     68     86     87     
70     69     87     88     
71     70     88     89     
74     73     90     91     
75     74     91     92     
76     75     92     93     
77     76     93     94     
78     77     94     95     
79     78     95     96     
80     79     96     97     
81     80     97     98     
82     81     98     99     
83     82     99     100     
84     83     100     101     
85     84     101     102     
86     85     102     103     
87     86     103     104     
88     87     104     105     
89     88     105     106     
91     90     107     108     
92     91     108     109     
93     92     109     110     
94     93     110     111     
95     94     111     112     
96     95     112     113     
97     96     113     114     
98     97     114     115     
99     98     115     116     
100     99     116     117     
101     100     117     118     
102     101     118     119     
103     102     119     120     
104     103     120     121     
105     104     121     122     
106     105     122     123     
108     107     124     125     
109     108     125     126     
110     109     126     127     
111     110     127     128     
112     111     128     129     
113     112     129     130     
114     113     130     131     
115     114     131     132     
116     115     132     133     
117     116     133     134     
118     117     134     135     
119     118     135     136     
120     119     136     137     
121     120     137     138     
122     121     138     139     
123     122     139     140     
125     124     141     142     
126     125     142     143     
127     126     143     144     
128     127     144     145     
129     128     145     146     
130     129     146     147     
131     130     147     148     
132     131     148     149     
133     132     149     150     
134     133     150     151     
135     134     151     152     
136     135     152     153     
137     136     153     154     
138     137     154     155     
139     138     155     156     
140     139     156     157     
142     141     158     159     
143     142     159     160     
144     143     160     161     
145     144     161     162     
146     145     162     163     
147     146     163     164     
148     147     164     165     
149     148     165     166     
150     149     166     167     
151     150     167     168     
152     151     168     169     
153     152     169     170     
154     153     170     171     
155     154     171     172     
156     155     172     173     
157     156     173     174     
159     158     175     176     
160     159     176     177     
161     160     177     178     
162     161     178     179     
163     162     179     180     
164     163     180     181     
165     164     181     182     
166     165     182     183     
167     166     183     184     
168     167     184     185     
169     168     185     186     
170     169     186     187     
171     170     187     188     
172     171     188     189     
173     172     189     190     
174     173     190     191     
176     175     192     193     
177     176     193     194     
178     177     194     195     
179     178     195     196     
180     179     196     197     
181     180     197     198     
182     181     198     199     
183     182     199     200     
184     183     200     201     
185     184     201     202     
186     185     202     203     
187     186     203     204     
188     187     204     205     
189     188     205     206     
190     189     206     207     
191     190     207     208     
193     192     209     210     
194     193     210     211     
195     194     211     212     
196     195     212     213     
197     196     213     214     
198     197     214     215     
199     198     215     216     
200     199     216     217     
201     200     217     218     
202     201     218     219     
203     202     219     220     
204     203     220     221     
205     204     221     222     
206     205     222     223     
207     206     223     224     
208     207     224     225     
210     209     226     227     
211     210     227     228     
212     211     228     229     
213     212     229     230     
214     213     230     231     
215     214     231     232     
216     215     232     233     
217     216     233     234     
218     217     234     235     
219     218     235     236     
220     219     236     237     
221     220     237     238     
222     221     238     239     
223     222     239     240     
224     223     240     241     
225     224     241     242     
227     226     243     244     
228     227     244     245     
229     228     245     246     
230     229     246     247     
231     230     247     248     
232     231     248     249     
233     232     249     250     
234     233     250     251     
235     234     251     252     
236     235     252     253     
237     236     253     254     
238     237     254     255     
239     238     255     256     
240     239     256     257     
241     240     257     258     
242     241     258     259     
247     246     260     261     
248     247     261     262     
249     248     262     263     
250     249     263     264     
251     250     264     265     
252     251     265     266     
253     252     266     267     
254     253     267     268     
255     254     268     269     
256     255     269     270     
257     256     270     271     
258     257     271     272     
259     258     272     273     
261     260     274     275     
262     261     275     276     
263     262     276     277     
264     263     277     278     
265     264     278     279     
266     265     279     280     
267     266     280     281     
268     267     281     282     
269     268     282     283     
270     269     283     284     
271     270     284     285     
272     271     285     286     
278     277     287     288     
279     278     288     289     
280     279     289     290     
281     280     290     291     

