Title = " tecplot file for 2D Cavity problem " 
variables = "x", "y", "z", "velX", "cellCentroidY" 
Zone T = "nmesh0" N = 289 E = 256 DATAPACKING = BLOCK, VARLOCATION = ([4-5]=CELLCENTERED), ZONETYPE=FEQUADRILATERAL
0.96875    1.0    0.96875    1.0    0.96875    
1.0    0.96875    1.0    0.96875    1.0    
0.96875    1.0    0.96875    1.0    0.96875    
1.0    0.96875    1.0    0.96875    1.0    
0.96875    1.0    0.96875    1.0    0.96875    
1.0    0.96875    1.0    0.96875    1.0    
0.96875    1.0    0.96875    0.9375    0.9375    
0.9375    0.9375    0.9375    0.9375    0.9375    
0.9375    0.9375    0.9375    0.9375    0.9375    
0.9375    0.9375    0.9375    0.9375    0.9375    
0.90625    0.90625    0.90625    0.90625    0.90625    
0.90625    0.90625    0.90625    0.90625    0.90625    
0.90625    0.90625    0.90625    0.90625    0.90625    
0.90625    0.90625    0.875    0.875    0.875    
0.875    0.875    0.875    0.875    0.875    
0.875    0.875    0.875    0.875    0.875    
0.875    0.875    0.875    0.875    0.84375    
0.84375    0.84375    0.84375    0.84375    0.84375    
0.84375    0.84375    0.84375    0.84375    0.84375    
0.84375    0.84375    0.84375    0.84375    0.84375    
0.84375    0.8125    0.8125    0.8125    0.8125    
0.8125    0.8125    0.8125    0.8125    0.8125    
0.8125    0.8125    0.8125    0.8125    0.8125    
0.8125    0.8125    0.8125    0.78125    0.78125    
0.78125    0.78125    0.78125    0.78125    0.78125    
0.78125    0.78125    0.78125    0.78125    0.78125    
0.78125    0.78125    0.78125    0.78125    0.78125    
0.75    0.75    0.75    0.75    0.75    
0.75    0.75    0.75    0.75    0.75    
0.75    0.75    0.75    0.75    0.75    
0.75    0.75    0.71875    0.71875    0.71875    
0.71875    0.71875    0.71875    0.71875    0.71875    
0.71875    0.71875    0.71875    0.71875    0.71875    
0.71875    0.71875    0.71875    0.71875    0.6875    
0.6875    0.6875    0.6875    0.6875    0.6875    
0.6875    0.6875    0.6875    0.6875    0.6875    
0.6875    0.6875    0.6875    0.6875    0.6875    
0.6875    0.65625    0.65625    0.65625    0.65625    
0.65625    0.65625    0.65625    0.65625    0.65625    
0.65625    0.65625    0.65625    0.65625    0.65625    
0.65625    0.65625    0.65625    0.625    0.625    
0.625    0.625    0.625    0.625    0.625    
0.625    0.625    0.625    0.625    0.625    
0.625    0.625    0.625    0.625    0.625    
0.59375    0.59375    0.59375    0.59375    0.59375    
0.59375    0.59375    0.59375    0.59375    0.59375    
0.59375    0.59375    0.59375    0.59375    0.59375    
0.59375    0.59375    0.5625    0.5625    0.5625    
0.5625    0.5625    0.5625    0.5625    0.5625    
0.5625    0.5625    0.5625    0.5625    0.5625    
0.5625    0.5625    0.5625    0.5625    0.53125    
0.53125    0.53125    0.53125    0.53125    0.53125    
0.53125    0.53125    0.53125    0.53125    0.53125    
0.53125    0.53125    0.53125    0.53125    0.53125    
0.53125    0.5    0.5    0.5    0.5    
0.5    0.5    0.5    0.5    0.5    
0.5    0.5    0.5    0.5    0.5    
0.5    0.5    0.5    1.0    
0.5    0.5    0.46875    0.46875    0.4375    
0.4375    0.40625    0.40625    0.375    0.375    
0.34375    0.34375    0.3125    0.3125    0.28125    
0.28125    0.25    0.25    0.21875    0.21875    
0.1875    0.1875    0.15625    0.15625    0.125    
0.125    0.09375    0.09375    0.0625    0.0625    
0.03125    0.03125    0.0    0.5    0.46875    
0.4375    0.40625    0.375    0.34375    0.3125    
0.28125    0.25    0.21875    0.1875    0.15625    
0.125    0.09375    0.0625    0.03125    0.0    
0.5    0.46875    0.4375    0.40625    0.375    
0.34375    0.3125    0.28125    0.25    0.21875    
0.1875    0.15625    0.125    0.09375    0.0625    
0.03125    0.0    0.5    0.46875    0.4375    
0.40625    0.375    0.34375    0.3125    0.28125    
0.25    0.21875    0.1875    0.15625    0.125    
0.09375    0.0625    0.03125    0.0    0.5    
0.46875    0.4375    0.40625    0.375    0.34375    
0.3125    0.28125    0.25    0.21875    0.1875    
0.15625    0.125    0.09375    0.0625    0.03125    
0.0    0.5    0.46875    0.4375    0.40625    
0.375    0.34375    0.3125    0.28125    0.25    
0.21875    0.1875    0.15625    0.125    0.09375    
0.0625    0.03125    0.0    0.5    0.46875    
0.4375    0.40625    0.375    0.34375    0.3125    
0.28125    0.25    0.21875    0.1875    0.15625    
0.125    0.09375    0.0625    0.03125    0.0    
0.5    0.46875    0.4375    0.40625    0.375    
0.34375    0.3125    0.28125    0.25    0.21875    
0.1875    0.15625    0.125    0.09375    0.0625    
0.03125    0.0    0.5    0.46875    0.4375    
0.40625    0.375    0.34375    0.3125    0.28125    
0.25    0.21875    0.1875    0.15625    0.125    
0.09375    0.0625    0.03125    0.0    0.5    
0.46875    0.4375    0.40625    0.375    0.34375    
0.3125    0.28125    0.25    0.21875    0.1875    
0.15625    0.125    0.09375    0.0625    0.03125    
0.0    0.5    0.46875    0.4375    0.40625    
0.375    0.34375    0.3125    0.28125    0.25    
0.21875    0.1875    0.15625    0.125    0.09375    
0.0625    0.03125    0.0    0.5    0.46875    
0.4375    0.40625    0.375    0.34375    0.3125    
0.28125    0.25    0.21875    0.1875    0.15625    
0.125    0.09375    0.0625    0.03125    0.0    
0.5    0.46875    0.4375    0.40625    0.375    
0.34375    0.3125    0.28125    0.25    0.21875    
0.1875    0.15625    0.125    0.09375    0.0625    
0.03125    0.0    0.5    0.46875    0.4375    
0.40625    0.375    0.34375    0.3125    0.28125    
0.25    0.21875    0.1875    0.15625    0.125    
0.09375    0.0625    0.03125    0.0    0.5    
0.46875    0.4375    0.40625    0.375    0.34375    
0.3125    0.28125    0.25    0.21875    0.1875    
0.15625    0.125    0.09375    0.0625    0.03125    
0.0    0.5    0.46875    0.4375    0.40625    
0.375    0.34375    0.3125    0.28125    0.25    
0.21875    0.1875    0.15625    0.125    0.09375    
0.0625    0.03125    0.0    0.0    
0.0    0.0    0.0    0.0    0.0    
0.0    0.0    0.0    0.0    0.0    
0.0    0.0    0.0    0.0    0.0    
0.0    0.0    0.0    0.0    0.0    
0.0    0.0    0.0    0.0    0.0    
0.0    0.0    0.0    0.0    0.0    
0.0    0.0    0.0    0.0    0.0    
0.0    0.0    0.0    0.0    0.0    
0.0    0.0    0.0    0.0    0.0    
0.0    0.0    0.0    0.0    0.0    
0.0    0.0    0.0    0.0    0.0    
0.0    0.0    0.0    0.0    0.0    
0.0    0.0    0.0    0.0    0.0    
0.0    0.0    0.0    0.0    0.0    
0.0    0.0    0.0    0.0    0.0    
0.0    0.0    0.0    0.0    0.0    
0.0    0.0    0.0    0.0    0.0    
0.0    0.0    0.0    0.0    0.0    
0.0    0.0    0.0    0.0    0.0    
0.0    0.0    0.0    0.0    0.0    
0.0    0.0    0.0    0.0    0.0    
0.0    0.0    0.0    0.0    0.0    
0.0    0.0    0.0    0.0    0.0    
0.0    0.0    0.0    0.0    0.0    
0.0    0.0    0.0    0.0    0.0    
0.0    0.0    0.0    0.0    0.0    
0.0    0.0    0.0    0.0    0.0    
0.0    0.0    0.0    0.0    0.0    
0.0    0.0    0.0    0.0    0.0    
0.0    0.0    0.0    0.0    0.0    
0.0    0.0    0.0    0.0    0.0    
0.0    0.0    0.0    0.0    0.0    
0.0    0.0    0.0    0.0    0.0    
0.0    0.0    0.0    0.0    0.0    
0.0    0.0    0.0    0.0    0.0    
0.0    0.0    0.0    0.0    0.0    
0.0    0.0    0.0    0.0    0.0    
0.0    0.0    0.0    0.0    0.0    
0.0    0.0    0.0    0.0    0.0    
0.0    0.0    0.0    0.0    0.0    
0.0    0.0    0.0    0.0    0.0    
0.0    0.0    0.0    0.0    0.0    
0.0    0.0    0.0    0.0    0.0    
0.0    0.0    0.0    0.0    0.0    
0.0    0.0    0.0    0.0    0.0    
0.0    0.0    0.0    0.0    0.0    
0.0    0.0    0.0    0.0    0.0    
0.0    0.0    0.0    0.0    0.0    
0.0    0.0    0.0    0.0    0.0    
0.0    0.0    0.0    0.0    0.0    
0.0    0.0    0.0    0.0    0.0    
0.0    0.0    0.0    0.0    0.0    
0.0    0.0    0.0    0.0    0.0    
0.0    0.0    0.0    0.0    0.0    
0.0    0.0    0.0    0.0    0.0    
0.0    0.0    0.0    0.0    0.0    
0.0    0.0    0.0    0.0    0.0    
0.0    0.0    0.0    0.0    
4.92853698557    4.38699135385    3.90034628235    3.4605251069    3.06083309897    
2.69562787775    2.36007886505    2.0499886106    1.76165771248    1.49178084032    
1.23736516924    0.995665077389    0.764128687652    0.540353020013    0.322045337657    
0.106988831791    14.7207917204    13.1060735122    11.6542149707    10.3414461544    
9.14801251    8.0572274242    7.05477783603    6.12820647434    5.26651911015    
4.45988131846    3.69937992711    2.97683152871    2.28462533961    1.61559107363    
0.96288483549    0.319887652231    24.3210857054    21.662295997    19.2689939164    
17.1030320312    15.1325433625    13.3304914719    11.6735985787    10.1415403382    
8.71633093276    7.38184539355    6.12344168957    4.92765576851    3.78195006677    
2.67450109808    1.59401527771    0.529564593913    33.6094703034    29.9530307958    
26.6564326898    23.6691446915    20.9486374348    18.4585965188    16.1675846646    
14.0480253621    12.075418884    10.2277276284    8.48488566441    6.82839978502    
5.24101805757    3.70644797185    2.20911058177    0.733920038496    42.4770589806    
37.8839241479    33.7345613323    29.9684766081    26.534265162    23.3876724981    
20.4901181922    17.807557554    15.3095916051    12.9687605643    10.7599735481    
8.66003964391    6.64727440214    4.70116214659    2.80205903697    0.930925016457    
50.8287156096    45.3710453831    40.4294119026    35.9359352416    31.8322740999    
28.0677101108    24.5976580423    21.3824950467    18.3866294082    15.5777494662    
12.9262083112    10.4045108332    7.98687775471    5.64886717127    3.36703840048    
1.11864600543    58.5844316513    52.3421297876    46.6761056256    41.5135783484    
36.7911858753    32.4532357909    28.4503088071    24.7381351692    21.2766815022    
18.0293995694    14.9625993871    12.0449176143    9.24685860527    6.54039037825    
3.89858138531    1.29526660967    65.6794678847    58.73693635    52.4193024784    
46.6510866412    41.3656552485    36.503738355    32.0122062102    27.8430553052    
23.9525618468    20.3005679085    16.8498720412    13.5657016217    10.4152486657    
7.36725434545    4.39163014953    1.45910565612    72.0634836354    64.5068451244    
57.6130812643    51.3058104763    45.5166101052    40.1838561518    35.2517223548    
30.6693179761    26.3899426539    22.3704381607    18.5706192338    14.9527681537    
11.4811800816    8.12174818188    4.84157920771    1.60863152073    77.6989481751    
69.6138790665    62.2203669876    55.4424638774    49.2111185239    43.4633537705    
38.1415090594    33.1925515695    28.5674526123    24.2206228289    20.1093985643    
16.1935716651    12.4349553151    8.79697908595    5.24430697487    1.74247273825    
82.5591374309    74.0293558127    66.2120437042    59.0325595019    52.4220463183    
46.3169313214    40.6584085177    35.3919266061    30.4666933749    25.8352019588    
21.4527805124    17.2771646133    13.2680904173    9.38690586457    5.59619686356    
1.85942519492    86.6259825861    77.7323628261    69.5658925186    62.0536840842    
55.1275758975    48.7239166496    42.7832670555    37.2500529362    32.0721922985    
27.200711098    22.589356895    18.1942158438    13.9733358649    9.88635708384    
5.89414941561    1.95845637115    89.8879808279    80.7082201807    72.2654794178    
64.4887083923    57.3106565038    50.66789229    44.500690087    38.7528257557    
33.3713117591    28.3060932171    23.5097201069    18.9370059864    14.544680103    
10.2910371822    6.1355873395    2.03870724442    92.3383173022    82.9470573834    
74.2990965781    66.3250135306    58.9584493957    52.1363058818    45.7987752125    
39.8892482102    34.354135738    29.142629881    24.2064243093    19.499407876    
14.9773413663    10.5975241939    6.31845551104    2.09949250974    93.9732950195    
84.442595221    75.6588359336    67.5537997264    60.0618216231    53.1201065875    
46.6688566342    40.6512561016    35.0133530729    29.7038662342    24.673939352    
19.8768598244    15.2677532791    10.8032627064    6.44121799553    2.14029979172    
94.791128362    85.1911922293    76.3398522137    68.1695277847    60.6149307353    
53.6134421661    47.1052885947    41.0335664535    35.3441541858    29.9855426037    
24.9086070165    20.0663387712    15.413549204    10.9065553457    6.50285396597    
2.16078845103    
0.484375    0.453125    0.421875    0.390625    0.359375    
0.328125    0.296875    0.265625    0.234375    0.203125    
0.171875    0.140625    0.109375    0.078125    0.046875    
0.015625    0.484375    0.453125    0.421875    0.390625    
0.359375    0.328125    0.296875    0.265625    0.234375    
0.203125    0.171875    0.140625    0.109375    0.078125    
0.046875    0.015625    0.484375    0.453125    0.421875    
0.390625    0.359375    0.328125    0.296875    0.265625    
0.234375    0.203125    0.171875    0.140625    0.109375    
0.078125    0.046875    0.015625    0.484375    0.453125    
0.421875    0.390625    0.359375    0.328125    0.296875    
0.265625    0.234375    0.203125    0.171875    0.140625    
0.109375    0.078125    0.046875    0.015625    0.484375    
0.453125    0.421875    0.390625    0.359375    0.328125    
0.296875    0.265625    0.234375    0.203125    0.171875    
0.140625    0.109375    0.078125    0.046875    0.015625    
0.484375    0.453125    0.421875    0.390625    0.359375    
0.328125    0.296875    0.265625    0.234375    0.203125    
0.171875    0.140625    0.109375    0.078125    0.046875    
0.015625    0.484375    0.453125    0.421875    0.390625    
0.359375    0.328125    0.296875    0.265625    0.234375    
0.203125    0.171875    0.140625    0.109375    0.078125    
0.046875    0.015625    0.484375    0.453125    0.421875    
0.390625    0.359375    0.328125    0.296875    0.265625    
0.234375    0.203125    0.171875    0.140625    0.109375    
0.078125    0.046875    0.015625    0.484375    0.453125    
0.421875    0.390625    0.359375    0.328125    0.296875    
0.265625    0.234375    0.203125    0.171875    0.140625    
0.109375    0.078125    0.046875    0.015625    0.484375    
0.453125    0.421875    0.390625    0.359375    0.328125    
0.296875    0.265625    0.234375    0.203125    0.171875    
0.140625    0.109375    0.078125    0.046875    0.015625    
0.484375    0.453125    0.421875    0.390625    0.359375    
0.328125    0.296875    0.265625    0.234375    0.203125    
0.171875    0.140625    0.109375    0.078125    0.046875    
0.015625    0.484375    0.453125    0.421875    0.390625    
0.359375    0.328125    0.296875    0.265625    0.234375    
0.203125    0.171875    0.140625    0.109375    0.078125    
0.046875    0.015625    0.484375    0.453125    0.421875    
0.390625    0.359375    0.328125    0.296875    0.265625    
0.234375    0.203125    0.171875    0.140625    0.109375    
0.078125    0.046875    0.015625    0.484375    0.453125    
0.421875    0.390625    0.359375    0.328125    0.296875    
0.265625    0.234375    0.203125    0.171875    0.140625    
0.109375    0.078125    0.046875    0.015625    0.484375    
0.453125    0.421875    0.390625    0.359375    0.328125    
0.296875    0.265625    0.234375    0.203125    0.171875    
0.140625    0.109375    0.078125    0.046875    0.015625    
0.484375    0.453125    0.421875    0.390625    0.359375    
0.328125    0.296875    0.265625    0.234375    0.203125    
0.171875    0.140625    0.109375    0.078125    0.046875    
0.015625    
3     4     2     1     
4     3     5     6     
6     5     7     8     
8     7     9     10     
10     9     11     12     
12     11     13     14     
14     13     15     16     
16     15     17     18     
18     17     19     20     
20     19     21     22     
22     21     23     24     
24     23     25     26     
26     25     27     28     
28     27     29     30     
30     29     31     32     
32     31     33     289     
3     1     34     35     
5     3     35     36     
7     5     36     37     
9     7     37     38     
11     9     38     39     
13     11     39     40     
15     13     40     41     
17     15     41     42     
19     17     42     43     
21     19     43     44     
23     21     44     45     
25     23     45     46     
27     25     46     47     
29     27     47     48     
31     29     48     49     
33     31     49     50     
35     34     51     52     
36     35     52     53     
37     36     53     54     
38     37     54     55     
39     38     55     56     
40     39     56     57     
41     40     57     58     
42     41     58     59     
43     42     59     60     
44     43     60     61     
45     44     61     62     
46     45     62     63     
47     46     63     64     
48     47     64     65     
49     48     65     66     
50     49     66     67     
52     51     68     69     
53     52     69     70     
54     53     70     71     
55     54     71     72     
56     55     72     73     
57     56     73     74     
58     57     74     75     
59     58     75     76     
60     59     76     77     
61     60     77     78     
62     61     78     79     
63     62     79     80     
64     63     80     81     
65     64     81     82     
66     65     82     83     
67     66     83     84     
69     68     85     86     
70     69     86     87     
71     70     87     88     
72     71     88     89     
73     72     89     90     
74     73     90     91     
75     74     91     92     
76     75     92     93     
77     76     93     94     
78     77     94     95     
79     78     95     96     
80     79     96     97     
81     80     97     98     
82     81     98     99     
83     82     99     100     
84     83     100     101     
86     85     102     103     
87     86     103     104     
88     87     104     105     
89     88     105     106     
90     89     106     107     
91     90     107     108     
92     91     108     109     
93     92     109     110     
94     93     110     111     
95     94     111     112     
96     95     112     113     
97     96     113     114     
98     97     114     115     
99     98     115     116     
100     99     116     117     
101     100     117     118     
103     102     119     120     
104     103     120     121     
105     104     121     122     
106     105     122     123     
107     106     123     124     
108     107     124     125     
109     108     125     126     
110     109     126     127     
111     110     127     128     
112     111     128     129     
113     112     129     130     
114     113     130     131     
115     114     131     132     
116     115     132     133     
117     116     133     134     
118     117     134     135     
120     119     136     137     
121     120     137     138     
122     121     138     139     
123     122     139     140     
124     123     140     141     
125     124     141     142     
126     125     142     143     
127     126     143     144     
128     127     144     145     
129     128     145     146     
130     129     146     147     
131     130     147     148     
132     131     148     149     
133     132     149     150     
134     133     150     151     
135     134     151     152     
137     136     153     154     
138     137     154     155     
139     138     155     156     
140     139     156     157     
141     140     157     158     
142     141     158     159     
143     142     159     160     
144     143     160     161     
145     144     161     162     
146     145     162     163     
147     146     163     164     
148     147     164     165     
149     148     165     166     
150     149     166     167     
151     150     167     168     
152     151     168     169     
154     153     170     171     
155     154     171     172     
156     155     172     173     
157     156     173     174     
158     157     174     175     
159     158     175     176     
160     159     176     177     
161     160     177     178     
162     161     178     179     
163     162     179     180     
164     163     180     181     
165     164     181     182     
166     165     182     183     
167     166     183     184     
168     167     184     185     
169     168     185     186     
171     170     187     188     
172     171     188     189     
173     172     189     190     
174     173     190     191     
175     174     191     192     
176     175     192     193     
177     176     193     194     
178     177     194     195     
179     178     195     196     
180     179     196     197     
181     180     197     198     
182     181     198     199     
183     182     199     200     
184     183     200     201     
185     184     201     202     
186     185     202     203     
188     187     204     205     
189     188     205     206     
190     189     206     207     
191     190     207     208     
192     191     208     209     
193     192     209     210     
194     193     210     211     
195     194     211     212     
196     195     212     213     
197     196     213     214     
198     197     214     215     
199     198     215     216     
200     199     216     217     
201     200     217     218     
202     201     218     219     
203     202     219     220     
205     204     221     222     
206     205     222     223     
207     206     223     224     
208     207     224     225     
209     208     225     226     
210     209     226     227     
211     210     227     228     
212     211     228     229     
213     212     229     230     
214     213     230     231     
215     214     231     232     
216     215     232     233     
217     216     233     234     
218     217     234     235     
219     218     235     236     
220     219     236     237     
222     221     238     239     
223     222     239     240     
224     223     240     241     
225     224     241     242     
226     225     242     243     
227     226     243     244     
228     227     244     245     
229     228     245     246     
230     229     246     247     
231     230     247     248     
232     231     248     249     
233     232     249     250     
234     233     250     251     
235     234     251     252     
236     235     252     253     
237     236     253     254     
239     238     255     256     
240     239     256     257     
241     240     257     258     
242     241     258     259     
243     242     259     260     
244     243     260     261     
245     244     261     262     
246     245     262     263     
247     246     263     264     
248     247     264     265     
249     248     265     266     
250     249     266     267     
251     250     267     268     
252     251     268     269     
253     252     269     270     
254     253     270     271     
256     255     272     273     
257     256     273     274     
258     257     274     275     
259     258     275     276     
260     259     276     277     
261     260     277     278     
262     261     278     279     
263     262     279     280     
264     263     280     281     
265     264     281     282     
266     265     282     283     
267     266     283     284     
268     267     284     285     
269     268     285     286     
270     269     286     287     
271     270     287     288     

