Title = " tecplot file for 2D Cavity problem " 
variables = "x", "y", "z", "velX", "cellCentroidY" 
Zone T = "nmesh0" N = 296 E = 256 DATAPACKING = BLOCK, VARLOCATION = ([4-5]=CELLCENTERED),  ZONETYPE=FEQUADRILATERAL 
0.96875    1.0    0.96875    0.96875    1.0    
0.96875    1.0    0.96875    1.0    0.96875    
1.0    0.96875    1.0    0.96875    1.0    
0.96875    1.0    0.96875    1.0    0.96875    
1.0    0.96875    1.0    0.96875    1.0    
0.96875    1.0    0.96875    1.0    0.96875    
1.0    0.9375    0.9375    0.9375    0.9375    
0.9375    0.9375    0.9375    0.9375    0.9375    
0.9375    0.9375    0.9375    0.9375    0.9375    
0.9375    0.9375    0.90625    0.90625    0.90625    
0.90625    0.90625    0.90625    0.90625    0.90625    
0.90625    0.90625    0.90625    0.90625    0.90625    
0.90625    0.90625    0.90625    0.875    0.875    
0.875    0.875    0.875    0.875    0.875    
0.875    0.875    0.875    0.875    0.875    
0.875    0.875    0.875    0.875    0.875    
0.84375    0.84375    0.84375    0.84375    0.84375    
0.84375    0.84375    0.84375    0.84375    0.84375    
0.84375    0.84375    0.84375    0.84375    0.84375    
0.84375    0.84375    0.8125    0.8125    0.8125    
0.8125    0.8125    0.8125    0.8125    0.8125    
0.8125    0.8125    0.8125    0.8125    0.8125    
0.8125    0.8125    0.8125    0.8125    0.78125    
0.78125    0.78125    0.78125    0.78125    0.78125    
0.78125    0.78125    0.78125    0.78125    0.78125    
0.78125    0.78125    0.78125    0.78125    0.78125    
0.78125    0.75    0.75    0.75    0.75    
0.75    0.75    0.75    0.75    0.75    
0.75    0.75    0.75    0.75    0.75    
0.75    0.75    0.75    0.71875    0.71875    
0.71875    0.71875    0.71875    0.71875    0.71875    
0.71875    0.71875    0.71875    0.71875    0.71875    
0.71875    0.71875    0.71875    0.71875    0.71875    
0.6875    0.6875    0.6875    0.6875    0.6875    
0.6875    0.6875    0.6875    0.6875    0.6875    
0.6875    0.6875    0.6875    0.6875    0.6875    
0.6875    0.6875    0.65625    0.65625    0.65625    
0.65625    0.65625    0.65625    0.65625    0.65625    
0.65625    0.65625    0.65625    0.65625    0.65625    
0.65625    0.65625    0.65625    0.65625    0.625    
0.625    0.625    0.625    0.625    0.625    
0.625    0.625    0.625    0.625    0.625    
0.625    0.625    0.625    0.625    0.625    
0.625    0.59375    0.59375    0.59375    0.59375    
0.59375    0.59375    0.59375    0.59375    0.59375    
0.59375    0.59375    0.59375    0.59375    0.59375    
0.59375    0.59375    0.59375    0.5625    0.5625    
0.5625    0.5625    0.5625    0.5625    0.5625    
0.5625    0.5625    0.5625    0.5625    0.5625    
0.5625    0.5625    0.5625    0.53125    0.53125    
0.53125    0.53125    0.53125    0.53125    0.53125    
0.53125    0.53125    0.53125    0.5    0.5    
0.5    0.5    0.5    0.5    0.5    
0.5    0.5    0.46875    0.46875    0.46875    
0.46875    0.46875    0.46875    0.46875    0.46875    
0.46875    0.4375    0.4375    0.4375    0.4375    
0.4375    0.4375    0.4375    0.4375    0.4375    
0.40625    0.40625    0.40625    0.40625    0.40625    
0.40625    0.375    0.375    0.375    0.375    
1.0    
0.96875    0.96875    1.0    0.9375    0.9375    
0.90625    0.90625    0.875    0.875    0.84375    
0.84375    0.8125    0.8125    0.78125    0.78125    
0.75    0.75    0.71875    0.71875    0.6875    
0.6875    0.65625    0.65625    0.625    0.625    
0.59375    0.59375    0.5625    0.5625    0.53125    
0.53125    0.96875    1.0    0.9375    0.90625    
0.875    0.84375    0.8125    0.78125    0.75    
0.71875    0.6875    0.65625    0.625    0.59375    
0.5625    0.53125    0.96875    1.0    0.9375    
0.90625    0.875    0.84375    0.8125    0.78125    
0.75    0.71875    0.6875    0.65625    0.625    
0.59375    0.5625    0.53125    0.96875    1.0    
0.9375    0.90625    0.875    0.84375    0.8125    
0.78125    0.75    0.71875    0.6875    0.65625    
0.625    0.59375    0.5625    0.53125    0.5    
0.96875    1.0    0.9375    0.90625    0.875    
0.84375    0.8125    0.78125    0.75    0.71875    
0.6875    0.65625    0.625    0.59375    0.5625    
0.53125    0.5    0.96875    1.0    0.9375    
0.90625    0.875    0.84375    0.8125    0.78125    
0.75    0.71875    0.6875    0.65625    0.625    
0.59375    0.5625    0.53125    0.5    0.96875    
1.0    0.9375    0.90625    0.875    0.84375    
0.8125    0.78125    0.75    0.71875    0.6875    
0.65625    0.625    0.59375    0.5625    0.53125    
0.5    0.96875    1.0    0.9375    0.90625    
0.875    0.84375    0.8125    0.78125    0.75    
0.71875    0.6875    0.65625    0.625    0.59375    
0.5625    0.53125    0.5    0.96875    1.0    
0.9375    0.90625    0.875    0.84375    0.8125    
0.78125    0.75    0.71875    0.6875    0.65625    
0.625    0.59375    0.5625    0.53125    0.5    
0.96875    1.0    0.9375    0.90625    0.875    
0.84375    0.8125    0.78125    0.75    0.71875    
0.6875    0.65625    0.625    0.59375    0.5625    
0.53125    0.5    0.96875    1.0    0.9375    
0.90625    0.875    0.84375    0.8125    0.78125    
0.75    0.71875    0.6875    0.65625    0.625    
0.59375    0.5625    0.53125    0.5    0.96875    
1.0    0.9375    0.90625    0.875    0.84375    
0.8125    0.78125    0.75    0.71875    0.6875    
0.65625    0.625    0.59375    0.5625    0.53125    
0.5    0.96875    1.0    0.9375    0.90625    
0.875    0.84375    0.8125    0.78125    0.75    
0.71875    0.6875    0.65625    0.625    0.59375    
0.5625    0.53125    0.5    0.96875    1.0    
0.9375    0.90625    0.875    0.84375    0.8125    
0.78125    0.75    0.71875    0.6875    0.65625    
0.5625    0.53125    0.5    0.96875    1.0    
0.9375    0.90625    0.875    0.84375    0.8125    
0.78125    0.75    0.71875    0.96875    1.0    
0.9375    0.90625    0.875    0.84375    0.8125    
0.78125    0.75    0.96875    1.0    0.9375    
0.90625    0.875    0.84375    0.8125    0.78125    
0.75    0.96875    1.0    0.9375    0.90625    
0.875    0.84375    0.8125    0.78125    0.75    
0.9375    0.90625    0.84375    0.8125    0.78125    
0.75    0.84375    0.8125    0.78125    0.75    
1.0    
0.0    0.0    0.0    0.0    0.0    
0.0    0.0    0.0    0.0    0.0    
0.0    0.0    0.0    0.0    0.0    
0.0    0.0    0.0    0.0    0.0    
0.0    0.0    0.0    0.0    0.0    
0.0    0.0    0.0    0.0    0.0    
0.0    0.0    0.0    0.0    0.0    
0.0    0.0    0.0    0.0    0.0    
0.0    0.0    0.0    0.0    0.0    
0.0    0.0    0.0    0.0    0.0    
0.0    0.0    0.0    0.0    0.0    
0.0    0.0    0.0    0.0    0.0    
0.0    0.0    0.0    0.0    0.0    
0.0    0.0    0.0    0.0    0.0    
0.0    0.0    0.0    0.0    0.0    
0.0    0.0    0.0    0.0    0.0    
0.0    0.0    0.0    0.0    0.0    
0.0    0.0    0.0    0.0    0.0    
0.0    0.0    0.0    0.0    0.0    
0.0    0.0    0.0    0.0    0.0    
0.0    0.0    0.0    0.0    0.0    
0.0    0.0    0.0    0.0    0.0    
0.0    0.0    0.0    0.0    0.0    
0.0    0.0    0.0    0.0    0.0    
0.0    0.0    0.0    0.0    0.0    
0.0    0.0    0.0    0.0    0.0    
0.0    0.0    0.0    0.0    0.0    
0.0    0.0    0.0    0.0    0.0    
0.0    0.0    0.0    0.0    0.0    
0.0    0.0    0.0    0.0    0.0    
0.0    0.0    0.0    0.0    0.0    
0.0    0.0    0.0    0.0    0.0    
0.0    0.0    0.0    0.0    0.0    
0.0    0.0    0.0    0.0    0.0    
0.0    0.0    0.0    0.0    0.0    
0.0    0.0    0.0    0.0    0.0    
0.0    0.0    0.0    0.0    0.0    
0.0    0.0    0.0    0.0    0.0    
0.0    0.0    0.0    0.0    0.0    
0.0    0.0    0.0    0.0    0.0    
0.0    0.0    0.0    0.0    0.0    
0.0    0.0    0.0    0.0    0.0    
0.0    0.0    0.0    0.0    0.0    
0.0    0.0    0.0    0.0    0.0    
0.0    0.0    0.0    0.0    0.0    
0.0    0.0    0.0    0.0    0.0    
0.0    0.0    0.0    0.0    0.0    
0.0    0.0    0.0    0.0    0.0    
0.0    0.0    0.0    0.0    0.0    
0.0    0.0    0.0    0.0    0.0    
0.0    0.0    0.0    0.0    0.0    
0.0    0.0    0.0    0.0    0.0    
0.0    0.0    0.0    0.0    0.0    
0.0    0.0    0.0    0.0    0.0    
0.0    0.0    0.0    0.0    0.0    
0.0    0.0    0.0    0.0    0.0    
0.0    0.0    0.0    0.0    0.0    
0.0    0.0    0.0    0.0    0.0    
0.0    0.0    0.0    0.0    0.0    
0.0    
199.893011198    90.383864822    308.974202364    52.989197484    199.037115428    
36.6298894368    137.932233161    27.7831296043    102.377120096    22.2282037464    
80.0575548378    18.3815281745    64.9763609534    15.5380421148    54.1413950104    
13.3375903645    45.9710920349    11.5763619143    39.5735477926    10.1299464292    
34.4142727775    8.9178916951    30.1554785356    7.88573701763    26.5737750284    
6.99520141158    23.515591981    6.21850152121    20.871768519    18.5624043701    
345.940885195    258.858161367    197.325499633    154.888802949    125.093608696    
103.478290218    87.2365988779    74.6313832206    64.571235992    56.3517028659    
49.5039199051    43.7061379004    38.731087356    34.4138763175    30.6318767669    
361.872062246    293.12914521    237.622801056    194.75898337    161.949786779    
136.606592344    116.69532706    100.746605976    87.728310086    76.9173827856    
67.8023603145    60.0157693061    53.2887432196    47.4207726112    42.2594416892    
370.290280827    314.163556171    265.277576009    224.574542696    191.339962705    
164.302965317    142.191511041    123.931403532    108.678015587    95.7871578714    
84.7723692536    75.2658357819    66.9873435888    59.7210292087    53.2984116731    
375.415785718    327.957222636    284.749404113    246.921648698    214.532556024    
187.073795175    163.836348251    144.109481521    127.265190852    112.780863853    
100.234123039    89.2878609666    79.6737661308    71.1775889429    47.5861255245    
63.6270502266    56.8823259869    378.831425128    337.500144541    298.841169106    
263.830091956    232.794817516    205.623311105    181.970605264    161.404983442    
143.492402443    127.836983642    114.095398075    101.977718907    91.2422710154    
81.6885101958    73.1498742918    65.4874127278    381.24119538    344.370761294    
309.285035813    276.762732503    247.193310976    220.654026459    197.017778253    
176.047444535    157.462451831    140.979270191    126.332766704    113.285345561    
101.62908882    91.1843065228    81.7965240055    73.3330192234    383.003790476    
349.456669441    317.165480345    286.742491263    258.561667423    232.781705496    
209.399036749    188.304564606    169.330690146    152.284878579    136.971052982    
123.201807807    110.804432171    99.6231030614    89.5188959729    80.3686725581    
384.321087561    353.286645648    323.177724861    294.480084776    267.529161952    
242.512091345    219.492098635    198.441086987    179.27086556    161.85850099    
146.064758832    131.74640051    118.763728989    106.984777571    96.2872842561    
86.5592917205    385.315001681    356.191100726    327.778688673    300.470961023    
274.562804256    250.245399293    227.616179449    206.696819139    187.453184111    
169.813500984    153.683080843    138.955306408    125.519305702    113.264993972    
102.086171749    91.8822622212    386.062820119    358.384066901    331.274968078    
305.062266382    280.00569475    256.290522112    234.030400718    213.276826001    
194.031550754    176.259237986    159.898757149    144.872438583    131.093193438    
118.469720861    106.910146534    96.3244483147    386.615032014    360.007378678    
333.874850351    308.497441669    284.107186242    260.880593678    238.9380753    
218.348533383    199.136954909    181.293143055    164.78027119    149.54249735    
135.511308611    122.610549494    110.760245193    99.8794022293    387.004961271    
361.155565442    335.719612974    310.945463694    287.045014862    264.186591044    
242.492773408    222.042277306    202.874592435    184.99610813    168.38668722    
113.640882373    102.544934909    387.2542089    361.890308842    336.902572405    
312.519785261    288.940818459    266.327982211    244.804149962    224.453209968    
205.32302937    387.375774387    362.248888619    337.480582538    313.290286476    
289.870491487    267.380369362    245.942634225    225.643383193    387.375774415    
362.248888704    337.480582645    313.290286609    289.870491637    267.380369504    
245.942634352    225.643383299    387.254208985    336.90257272    312.519785665    
288.940818936    266.327982652    244.804150354    224.453210337    335.719613435    
264.186591749    242.492774071    222.042277925    260.88059454    238.938076172    
218.34853421    
0.984375    0.953125    0.984375    0.921875    0.953125    
0.890625    0.921875    0.859375    0.890625    0.828125    
0.859375    0.796875    0.828125    0.765625    0.796875    
0.734375    0.765625    0.703125    0.734375    0.671875    
0.703125    0.640625    0.671875    0.609375    0.640625    
0.578125    0.609375    0.546875    0.578125    0.546875    
0.984375    0.953125    0.921875    0.890625    0.859375    
0.828125    0.796875    0.765625    0.734375    0.703125    
0.671875    0.640625    0.609375    0.578125    0.546875    
0.984375    0.953125    0.921875    0.890625    0.859375    
0.828125    0.796875    0.765625    0.734375    0.703125    
0.671875    0.640625    0.609375    0.578125    0.546875    
0.984375    0.953125    0.921875    0.890625    0.859375    
0.828125    0.796875    0.765625    0.734375    0.703125    
0.671875    0.640625    0.609375    0.578125    0.546875    
0.984375    0.953125    0.921875    0.890625    0.859375    
0.828125    0.796875    0.765625    0.734375    0.703125    
0.671875    0.640625    0.609375    0.578125    0.515625    
0.546875    0.515625    0.984375    0.953125    0.921875    
0.890625    0.859375    0.828125    0.796875    0.765625    
0.734375    0.703125    0.671875    0.640625    0.609375    
0.578125    0.546875    0.515625    0.984375    0.953125    
0.921875    0.890625    0.859375    0.828125    0.796875    
0.765625    0.734375    0.703125    0.671875    0.640625    
0.609375    0.578125    0.546875    0.515625    0.984375    
0.953125    0.921875    0.890625    0.859375    0.828125    
0.796875    0.765625    0.734375    0.703125    0.671875    
0.640625    0.609375    0.578125    0.546875    0.515625    
0.984375    0.953125    0.921875    0.890625    0.859375    
0.828125    0.796875    0.765625    0.734375    0.703125    
0.671875    0.640625    0.609375    0.578125    0.546875    
0.515625    0.984375    0.953125    0.921875    0.890625    
0.859375    0.828125    0.796875    0.765625    0.734375    
0.703125    0.671875    0.640625    0.609375    0.578125    
0.546875    0.515625    0.984375    0.953125    0.921875    
0.890625    0.859375    0.828125    0.796875    0.765625    
0.734375    0.703125    0.671875    0.640625    0.609375    
0.578125    0.546875    0.515625    0.984375    0.953125    
0.921875    0.890625    0.859375    0.828125    0.796875    
0.765625    0.734375    0.703125    0.671875    0.640625    
0.609375    0.578125    0.546875    0.515625    0.984375    
0.953125    0.921875    0.890625    0.859375    0.828125    
0.796875    0.765625    0.734375    0.703125    0.671875    
0.546875    0.515625    0.984375    0.953125    0.921875    
0.890625    0.859375    0.828125    0.796875    0.765625    
0.734375    0.984375    0.953125    0.921875    0.890625    
0.859375    0.828125    0.796875    0.765625    0.984375    
0.953125    0.921875    0.890625    0.859375    0.828125    
0.796875    0.765625    0.984375    0.921875    0.890625    
0.859375    0.828125    0.796875    0.765625    0.921875    
0.828125    0.796875    0.765625    0.828125    0.796875    
0.765625    
1     2     296     3     
2     1     4     5     
1     3     33     32     
5     4     6     7     
4     1     32     34     
7     6     8     9     
6     4     34     35     
9     8     10     11     
8     6     35     36     
11     10     12     13     
10     8     36     37     
13     12     14     15     
12     10     37     38     
15     14     16     17     
14     12     38     39     
17     16     18     19     
16     14     39     40     
19     18     20     21     
18     16     40     41     
21     20     22     23     
20     18     41     42     
23     22     24     25     
22     20     42     43     
25     24     26     27     
24     22     43     44     
27     26     28     29     
26     24     44     45     
29     28     30     31     
28     26     45     46     
30     28     46     47     
32     33     49     48     
34     32     48     50     
35     34     50     51     
36     35     51     52     
37     36     52     53     
38     37     53     54     
39     38     54     55     
40     39     55     56     
41     40     56     57     
42     41     57     58     
43     42     58     59     
44     43     59     60     
45     44     60     61     
46     45     61     62     
47     46     62     63     
48     49     65     64     
50     48     64     66     
51     50     66     67     
52     51     67     68     
53     52     68     69     
54     53     69     70     
55     54     70     71     
56     55     71     72     
57     56     72     73     
58     57     73     74     
59     58     74     75     
60     59     75     76     
61     60     76     77     
62     61     77     78     
63     62     78     79     
64     65     82     81     
66     64     81     83     
67     66     83     84     
68     67     84     85     
69     68     85     86     
70     69     86     87     
71     70     87     88     
72     71     88     89     
73     72     89     90     
74     73     90     91     
75     74     91     92     
76     75     92     93     
77     76     93     94     
78     77     94     95     
79     78     95     96     
81     82     99     98     
83     81     98     100     
84     83     100     101     
85     84     101     102     
86     85     102     103     
87     86     103     104     
88     87     104     105     
89     88     105     106     
90     89     106     107     
91     90     107     108     
92     91     108     109     
93     92     109     110     
94     93     110     111     
95     94     111     112     
79     96     97     80     
96     95     112     113     
97     96     113     114     
98     99     116     115     
100     98     115     117     
101     100     117     118     
102     101     118     119     
103     102     119     120     
104     103     120     121     
105     104     121     122     
106     105     122     123     
107     106     123     124     
108     107     124     125     
109     108     125     126     
110     109     126     127     
111     110     127     128     
112     111     128     129     
113     112     129     130     
114     113     130     131     
115     116     133     132     
117     115     132     134     
118     117     134     135     
119     118     135     136     
120     119     136     137     
121     120     137     138     
122     121     138     139     
123     122     139     140     
124     123     140     141     
125     124     141     142     
126     125     142     143     
127     126     143     144     
128     127     144     145     
129     128     145     146     
130     129     146     147     
131     130     147     148     
132     133     150     149     
134     132     149     151     
135     134     151     152     
136     135     152     153     
137     136     153     154     
138     137     154     155     
139     138     155     156     
140     139     156     157     
141     140     157     158     
142     141     158     159     
143     142     159     160     
144     143     160     161     
145     144     161     162     
146     145     162     163     
147     146     163     164     
148     147     164     165     
149     150     167     166     
151     149     166     168     
152     151     168     169     
153     152     169     170     
154     153     170     171     
155     154     171     172     
156     155     172     173     
157     156     173     174     
158     157     174     175     
159     158     175     176     
160     159     176     177     
161     160     177     178     
162     161     178     179     
163     162     179     180     
164     163     180     181     
165     164     181     182     
166     167     184     183     
168     166     183     185     
169     168     185     186     
170     169     186     187     
171     170     187     188     
172     171     188     189     
173     172     189     190     
174     173     190     191     
175     174     191     192     
176     175     192     193     
177     176     193     194     
178     177     194     195     
179     178     195     196     
180     179     196     197     
181     180     197     198     
182     181     198     199     
183     184     201     200     
185     183     200     202     
186     185     202     203     
187     186     203     204     
188     187     204     205     
189     188     205     206     
190     189     206     207     
191     190     207     208     
192     191     208     209     
193     192     209     210     
194     193     210     211     
195     194     211     212     
196     195     212     213     
197     196     213     214     
198     197     214     215     
199     198     215     216     
200     201     218     217     
202     200     217     219     
203     202     219     220     
204     203     220     221     
205     204     221     222     
206     205     222     223     
207     206     223     224     
208     207     224     225     
209     208     225     226     
210     209     226     227     
211     210     227     228     
212     211     228     229     
213     212     229     230     
214     213     230     231     
215     214     231     232     
216     215     232     233     
217     218     235     234     
219     217     234     236     
220     219     236     237     
221     220     237     238     
222     221     238     239     
223     222     239     240     
224     223     240     241     
225     224     241     242     
226     225     242     243     
227     226     243     244     
228     227     244     245     
232     231     246     247     
233     232     247     248     
234     235     250     249     
236     234     249     251     
237     236     251     252     
238     237     252     253     
239     238     253     254     
240     239     254     255     
241     240     255     256     
242     241     256     257     
243     242     257     258     
249     250     260     259     
251     249     259     261     
252     251     261     262     
253     252     262     263     
254     253     263     264     
255     254     264     265     
256     255     265     266     
257     256     266     267     
259     260     269     268     
261     259     268     270     
262     261     270     271     
263     262     271     272     
264     263     272     273     
265     264     273     274     
266     265     274     275     
267     266     275     276     
268     269     278     277     
271     270     279     280     
272     271     280     281     
273     272     281     282     
274     273     282     283     
275     274     283     284     
276     275     284     285     
280     279     286     287     
283     282     288     289     
284     283     289     290     
285     284     290     291     
289     288     292     293     
290     289     293     294     
291     290     294     295     

