Title = " tecplot file for 2D Cavity problem " 
variables = "x", "y", "z", "velX", "cellCentroidY" 
Zone T = "nmesh0" N = 289 E = 256 DATAPACKING = BLOCK, VARLOCATION = ([4-5]=CELLCENTERED), ZONETYPE=FEQUADRILATERAL
0.96875    1.0    0.96875    0.96875    1.0    
0.96875    1.0    0.96875    1.0    0.96875    
1.0    0.96875    1.0    0.96875    1.0    
0.96875    1.0    0.96875    1.0    0.96875    
1.0    0.96875    1.0    0.96875    1.0    
0.96875    1.0    0.96875    1.0    0.96875    
1.0    0.96875    1.0    0.9375    0.9375    
0.9375    0.9375    0.9375    0.9375    0.9375    
0.9375    0.9375    0.9375    0.9375    0.9375    
0.9375    0.9375    0.9375    0.9375    0.9375    
0.90625    0.90625    0.90625    0.90625    0.90625    
0.90625    0.90625    0.90625    0.90625    0.90625    
0.90625    0.90625    0.90625    0.90625    0.90625    
0.90625    0.90625    0.875    0.875    0.875    
0.875    0.875    0.875    0.875    0.875    
0.875    0.875    0.875    0.875    0.875    
0.875    0.875    0.875    0.875    0.84375    
0.84375    0.84375    0.84375    0.84375    0.84375    
0.84375    0.84375    0.84375    0.84375    0.84375    
0.84375    0.84375    0.84375    0.84375    0.84375    
0.84375    0.8125    0.8125    0.8125    0.8125    
0.8125    0.8125    0.8125    0.8125    0.8125    
0.8125    0.8125    0.8125    0.8125    0.8125    
0.8125    0.8125    0.8125    0.78125    0.78125    
0.78125    0.78125    0.78125    0.78125    0.78125    
0.78125    0.78125    0.78125    0.78125    0.78125    
0.78125    0.78125    0.78125    0.78125    0.78125    
0.75    0.75    0.75    0.75    0.75    
0.75    0.75    0.75    0.75    0.75    
0.75    0.75    0.75    0.75    0.75    
0.75    0.75    0.71875    0.71875    0.71875    
0.71875    0.71875    0.71875    0.71875    0.71875    
0.71875    0.71875    0.71875    0.71875    0.71875    
0.71875    0.71875    0.71875    0.71875    0.6875    
0.6875    0.6875    0.6875    0.6875    0.6875    
0.6875    0.6875    0.6875    0.6875    0.6875    
0.6875    0.6875    0.6875    0.6875    0.6875    
0.6875    0.65625    0.65625    0.65625    0.65625    
0.65625    0.65625    0.65625    0.65625    0.65625    
0.65625    0.65625    0.65625    0.65625    0.65625    
0.65625    0.65625    0.65625    0.625    0.625    
0.625    0.625    0.625    0.625    0.625    
0.625    0.625    0.625    0.625    0.625    
0.625    0.625    0.625    0.625    0.625    
0.59375    0.59375    0.59375    0.59375    0.59375    
0.59375    0.59375    0.59375    0.59375    0.59375    
0.59375    0.59375    0.59375    0.59375    0.59375    
0.59375    0.59375    0.5625    0.5625    0.5625    
0.5625    0.5625    0.5625    0.5625    0.5625    
0.5625    0.5625    0.5625    0.5625    0.5625    
0.5625    0.5625    0.5625    0.5625    0.53125    
0.53125    0.53125    0.53125    0.53125    0.53125    
0.53125    0.53125    0.53125    0.53125    0.53125    
0.53125    0.53125    0.53125    0.53125    0.53125    
0.53125    0.5    0.5    0.5    0.5    
0.5    0.5    0.5    0.5    0.5    
0.5    0.5    0.5    0.5    0.5    
0.5    0.5    0.5    1.0    
0.96875    0.96875    1.0    0.9375    0.9375    
0.90625    0.90625    0.875    0.875    0.84375    
0.84375    0.8125    0.8125    0.78125    0.78125    
0.75    0.75    0.71875    0.71875    0.6875    
0.6875    0.65625    0.65625    0.625    0.625    
0.59375    0.59375    0.5625    0.5625    0.53125    
0.53125    0.5    0.5    0.96875    1.0    
0.9375    0.90625    0.875    0.84375    0.8125    
0.78125    0.75    0.71875    0.6875    0.65625    
0.625    0.59375    0.5625    0.53125    0.5    
0.96875    1.0    0.9375    0.90625    0.875    
0.84375    0.8125    0.78125    0.75    0.71875    
0.6875    0.65625    0.625    0.59375    0.5625    
0.53125    0.5    0.96875    1.0    0.9375    
0.90625    0.875    0.84375    0.8125    0.78125    
0.75    0.71875    0.6875    0.65625    0.625    
0.59375    0.5625    0.53125    0.5    0.96875    
1.0    0.9375    0.90625    0.875    0.84375    
0.8125    0.78125    0.75    0.71875    0.6875    
0.65625    0.625    0.59375    0.5625    0.53125    
0.5    0.96875    1.0    0.9375    0.90625    
0.875    0.84375    0.8125    0.78125    0.75    
0.71875    0.6875    0.65625    0.625    0.59375    
0.5625    0.53125    0.5    0.96875    1.0    
0.9375    0.90625    0.875    0.84375    0.8125    
0.78125    0.75    0.71875    0.6875    0.65625    
0.625    0.59375    0.5625    0.53125    0.5    
0.96875    1.0    0.9375    0.90625    0.875    
0.84375    0.8125    0.78125    0.75    0.71875    
0.6875    0.65625    0.625    0.59375    0.5625    
0.53125    0.5    0.96875    1.0    0.9375    
0.90625    0.875    0.84375    0.8125    0.78125    
0.75    0.71875    0.6875    0.65625    0.625    
0.59375    0.5625    0.53125    0.5    0.96875    
1.0    0.9375    0.90625    0.875    0.84375    
0.8125    0.78125    0.75    0.71875    0.6875    
0.65625    0.625    0.59375    0.5625    0.53125    
0.5    0.96875    1.0    0.9375    0.90625    
0.875    0.84375    0.8125    0.78125    0.75    
0.71875    0.6875    0.65625    0.625    0.59375    
0.5625    0.53125    0.5    0.96875    1.0    
0.9375    0.90625    0.875    0.84375    0.8125    
0.78125    0.75    0.71875    0.6875    0.65625    
0.625    0.59375    0.5625    0.53125    0.5    
0.96875    1.0    0.9375    0.90625    0.875    
0.84375    0.8125    0.78125    0.75    0.71875    
0.6875    0.65625    0.625    0.59375    0.5625    
0.53125    0.5    0.96875    1.0    0.9375    
0.90625    0.875    0.84375    0.8125    0.78125    
0.75    0.71875    0.6875    0.65625    0.625    
0.59375    0.5625    0.53125    0.5    0.96875    
1.0    0.9375    0.90625    0.875    0.84375    
0.8125    0.78125    0.75    0.71875    0.6875    
0.65625    0.625    0.59375    0.5625    0.53125    
0.5    0.96875    1.0    0.9375    0.90625    
0.875    0.84375    0.8125    0.78125    0.75    
0.71875    0.6875    0.65625    0.625    0.59375    
0.5625    0.53125    0.5    1.0    
0.0    0.0    0.0    0.0    0.0    
0.0    0.0    0.0    0.0    0.0    
0.0    0.0    0.0    0.0    0.0    
0.0    0.0    0.0    0.0    0.0    
0.0    0.0    0.0    0.0    0.0    
0.0    0.0    0.0    0.0    0.0    
0.0    0.0    0.0    0.0    0.0    
0.0    0.0    0.0    0.0    0.0    
0.0    0.0    0.0    0.0    0.0    
0.0    0.0    0.0    0.0    0.0    
0.0    0.0    0.0    0.0    0.0    
0.0    0.0    0.0    0.0    0.0    
0.0    0.0    0.0    0.0    0.0    
0.0    0.0    0.0    0.0    0.0    
0.0    0.0    0.0    0.0    0.0    
0.0    0.0    0.0    0.0    0.0    
0.0    0.0    0.0    0.0    0.0    
0.0    0.0    0.0    0.0    0.0    
0.0    0.0    0.0    0.0    0.0    
0.0    0.0    0.0    0.0    0.0    
0.0    0.0    0.0    0.0    0.0    
0.0    0.0    0.0    0.0    0.0    
0.0    0.0    0.0    0.0    0.0    
0.0    0.0    0.0    0.0    0.0    
0.0    0.0    0.0    0.0    0.0    
0.0    0.0    0.0    0.0    0.0    
0.0    0.0    0.0    0.0    0.0    
0.0    0.0    0.0    0.0    0.0    
0.0    0.0    0.0    0.0    0.0    
0.0    0.0    0.0    0.0    0.0    
0.0    0.0    0.0    0.0    0.0    
0.0    0.0    0.0    0.0    0.0    
0.0    0.0    0.0    0.0    0.0    
0.0    0.0    0.0    0.0    0.0    
0.0    0.0    0.0    0.0    0.0    
0.0    0.0    0.0    0.0    0.0    
0.0    0.0    0.0    0.0    0.0    
0.0    0.0    0.0    0.0    0.0    
0.0    0.0    0.0    0.0    0.0    
0.0    0.0    0.0    0.0    0.0    
0.0    0.0    0.0    0.0    0.0    
0.0    0.0    0.0    0.0    0.0    
0.0    0.0    0.0    0.0    0.0    
0.0    0.0    0.0    0.0    0.0    
0.0    0.0    0.0    0.0    0.0    
0.0    0.0    0.0    0.0    0.0    
0.0    0.0    0.0    0.0    0.0    
0.0    0.0    0.0    0.0    0.0    
0.0    0.0    0.0    0.0    0.0    
0.0    0.0    0.0    0.0    0.0    
0.0    0.0    0.0    0.0    0.0    
0.0    0.0    0.0    0.0    0.0    
0.0    0.0    0.0    0.0    0.0    
0.0    0.0    0.0    0.0    0.0    
0.0    0.0    0.0    0.0    0.0    
0.0    0.0    0.0    0.0    0.0    
0.0    0.0    0.0    0.0    0.0    
0.0    0.0    0.0    0.0    
199.893011199    90.3838648245    308.974202367    52.9891974883    199.037115436    
36.6298894429    137.932233173    27.7831296124    102.377120114    22.2282037564    
80.0575548617    18.3815281865    64.9763609832    15.5380421288    54.1413950464    
13.3375903807    45.9710920771    11.5763619325    39.5735478412    10.1299464495    
34.4142728323    8.91789171714    30.1554785964    7.88573704141    26.5737750947    
6.99520143685    23.5155920517    6.21850154885    20.8717685937    5.53490186113    
18.5624044448    16.5274707405    345.9408852    258.858161379    197.325499654    
154.888802979    125.093608736    103.478290267    87.2365989372    74.6313832905    
64.5712360727    56.3517029574    49.5039200069    43.7061380114    38.7310874745    
34.4138764396    30.6318768938    27.2917848268    361.872062252    293.129145227    
237.622801085    194.758983412    161.949786833    136.606592412    116.695327142    
100.746606073    87.7283101988    76.9173829145    67.8023604591    60.0157694659    
53.2887433918    47.4207727931    42.2594418614    37.6867057855    370.290280834    
314.163556192    265.277576045    224.574542747    191.339962772    164.302965402    
142.191511144    123.931403655    108.678015731    95.7871580382    84.772369444    
75.2658359963    66.9873438286    59.721029475    53.2984119679    47.5861258856    
375.415785726    327.957222661    284.749404155    246.921648758    214.532556103    
187.073795275    163.836348374    144.109481668    127.265191027    112.780864057    
100.234123276    89.2878612398    79.6737664445    71.1775893032    63.6270506423    
56.882326474    378.831425137    337.500144569    298.841169153    263.830092023    
232.794817605    205.623311217    181.970605402    161.40498361    143.492402644    
127.83698388    114.095398354    101.977719234    91.2422713977    81.6885106421    
73.149874814    65.4874133417    381.241195389    344.370761324    309.285035863    
276.762732575    247.193311072    220.65402658    197.017778403    176.047444717    
157.462452051    140.979270455    126.332767018    113.285345933    101.629089259    
91.1843070419    81.7965246175    73.3330199432    383.003790487    349.456669473    
317.165480398    286.742491338    258.561667523    232.781705622    209.399036906    
188.304564798    169.330690378    152.284878859    136.971053319    123.20180821    
110.804432652    99.6231036351    89.5188966556    80.3686733647    384.321087572    
353.28664568    323.177724916    294.480084853    267.529162053    242.512091474    
219.492098793    198.44108718    179.270865794    161.858501273    146.064759174    
131.746400922    118.763729488    106.984778175    96.287284987    86.5592925947    
385.315001692    356.191100759    327.778688728    300.470961101    274.562804358    
250.24539942    227.616179603    206.696819325    187.453184334    169.813501252    
153.683081168    138.955306802    125.519306185    113.264994573    102.086172502    
91.8822631439    386.06282013    358.384066934    331.274968133    305.06226646    
280.005694852    256.290522238    234.030400866    213.276826172    194.031550952    
176.259238219    159.898757428    144.872438916    131.093193858    118.469721408    
106.91014728    96.3244492738    386.615032025    360.007378711    333.874850408    
308.497441751    284.107186348    260.880593804    238.938075442    218.348533535    
199.136955071    181.29314323    164.78027139    149.54249756    135.511308902    
122.6105499    110.76024591    99.879403231    387.004961282    361.155565476    
335.719613034    310.945463783    287.045014979    264.186591183    242.492773556    
222.042277445    202.874592553    184.996108226    168.386687327    153.005971013    
138.79899427    125.700923356    113.6408832    102.544935986    387.25420891    
361.890308875    336.902572469    312.519785364    288.940818601    266.327982387    
244.804150147    224.45321013    205.323029459    187.430009781    170.764398665    
155.295704878    140.977773789    127.75326603    115.557427518    104.321139197    
387.375774392    362.248888645    337.480582604    313.290286605    289.870491674    
267.380369617    245.942634512    225.643383466    206.53430537    188.63650277    
171.945192664    156.434676036    142.063129964    128.776939438    116.514421617    
105.208897168    
0.984375    0.953125    0.984375    0.921875    0.953125    
0.890625    0.921875    0.859375    0.890625    0.828125    
0.859375    0.796875    0.828125    0.765625    0.796875    
0.734375    0.765625    0.703125    0.734375    0.671875    
0.703125    0.640625    0.671875    0.609375    0.640625    
0.578125    0.609375    0.546875    0.578125    0.515625    
0.546875    0.515625    0.984375    0.953125    0.921875    
0.890625    0.859375    0.828125    0.796875    0.765625    
0.734375    0.703125    0.671875    0.640625    0.609375    
0.578125    0.546875    0.515625    0.984375    0.953125    
0.921875    0.890625    0.859375    0.828125    0.796875    
0.765625    0.734375    0.703125    0.671875    0.640625    
0.609375    0.578125    0.546875    0.515625    0.984375    
0.953125    0.921875    0.890625    0.859375    0.828125    
0.796875    0.765625    0.734375    0.703125    0.671875    
0.640625    0.609375    0.578125    0.546875    0.515625    
0.984375    0.953125    0.921875    0.890625    0.859375    
0.828125    0.796875    0.765625    0.734375    0.703125    
0.671875    0.640625    0.609375    0.578125    0.546875    
0.515625    0.984375    0.953125    0.921875    0.890625    
0.859375    0.828125    0.796875    0.765625    0.734375    
0.703125    0.671875    0.640625    0.609375    0.578125    
0.546875    0.515625    0.984375    0.953125    0.921875    
0.890625    0.859375    0.828125    0.796875    0.765625    
0.734375    0.703125    0.671875    0.640625    0.609375    
0.578125    0.546875    0.515625    0.984375    0.953125    
0.921875    0.890625    0.859375    0.828125    0.796875    
0.765625    0.734375    0.703125    0.671875    0.640625    
0.609375    0.578125    0.546875    0.515625    0.984375    
0.953125    0.921875    0.890625    0.859375    0.828125    
0.796875    0.765625    0.734375    0.703125    0.671875    
0.640625    0.609375    0.578125    0.546875    0.515625    
0.984375    0.953125    0.921875    0.890625    0.859375    
0.828125    0.796875    0.765625    0.734375    0.703125    
0.671875    0.640625    0.609375    0.578125    0.546875    
0.515625    0.984375    0.953125    0.921875    0.890625    
0.859375    0.828125    0.796875    0.765625    0.734375    
0.703125    0.671875    0.640625    0.609375    0.578125    
0.546875    0.515625    0.984375    0.953125    0.921875    
0.890625    0.859375    0.828125    0.796875    0.765625    
0.734375    0.703125    0.671875    0.640625    0.609375    
0.578125    0.546875    0.515625    0.984375    0.953125    
0.921875    0.890625    0.859375    0.828125    0.796875    
0.765625    0.734375    0.703125    0.671875    0.640625    
0.609375    0.578125    0.546875    0.515625    0.984375    
0.953125    0.921875    0.890625    0.859375    0.828125    
0.796875    0.765625    0.734375    0.703125    0.671875    
0.640625    0.609375    0.578125    0.546875    0.515625    
0.984375    0.953125    0.921875    0.890625    0.859375    
0.828125    0.796875    0.765625    0.734375    0.703125    
0.671875    0.640625    0.609375    0.578125    0.546875    
0.515625    
1     2     289     3     
2     1     4     5     
1     3     35     34     
5     4     6     7     
4     1     34     36     
7     6     8     9     
6     4     36     37     
9     8     10     11     
8     6     37     38     
11     10     12     13     
10     8     38     39     
13     12     14     15     
12     10     39     40     
15     14     16     17     
14     12     40     41     
17     16     18     19     
16     14     41     42     
19     18     20     21     
18     16     42     43     
21     20     22     23     
20     18     43     44     
23     22     24     25     
22     20     44     45     
25     24     26     27     
24     22     45     46     
27     26     28     29     
26     24     46     47     
29     28     30     31     
28     26     47     48     
31     30     32     33     
30     28     48     49     
32     30     49     50     
34     35     52     51     
36     34     51     53     
37     36     53     54     
38     37     54     55     
39     38     55     56     
40     39     56     57     
41     40     57     58     
42     41     58     59     
43     42     59     60     
44     43     60     61     
45     44     61     62     
46     45     62     63     
47     46     63     64     
48     47     64     65     
49     48     65     66     
50     49     66     67     
51     52     69     68     
53     51     68     70     
54     53     70     71     
55     54     71     72     
56     55     72     73     
57     56     73     74     
58     57     74     75     
59     58     75     76     
60     59     76     77     
61     60     77     78     
62     61     78     79     
63     62     79     80     
64     63     80     81     
65     64     81     82     
66     65     82     83     
67     66     83     84     
68     69     86     85     
70     68     85     87     
71     70     87     88     
72     71     88     89     
73     72     89     90     
74     73     90     91     
75     74     91     92     
76     75     92     93     
77     76     93     94     
78     77     94     95     
79     78     95     96     
80     79     96     97     
81     80     97     98     
82     81     98     99     
83     82     99     100     
84     83     100     101     
85     86     103     102     
87     85     102     104     
88     87     104     105     
89     88     105     106     
90     89     106     107     
91     90     107     108     
92     91     108     109     
93     92     109     110     
94     93     110     111     
95     94     111     112     
96     95     112     113     
97     96     113     114     
98     97     114     115     
99     98     115     116     
100     99     116     117     
101     100     117     118     
102     103     120     119     
104     102     119     121     
105     104     121     122     
106     105     122     123     
107     106     123     124     
108     107     124     125     
109     108     125     126     
110     109     126     127     
111     110     127     128     
112     111     128     129     
113     112     129     130     
114     113     130     131     
115     114     131     132     
116     115     132     133     
117     116     133     134     
118     117     134     135     
119     120     137     136     
121     119     136     138     
122     121     138     139     
123     122     139     140     
124     123     140     141     
125     124     141     142     
126     125     142     143     
127     126     143     144     
128     127     144     145     
129     128     145     146     
130     129     146     147     
131     130     147     148     
132     131     148     149     
133     132     149     150     
134     133     150     151     
135     134     151     152     
136     137     154     153     
138     136     153     155     
139     138     155     156     
140     139     156     157     
141     140     157     158     
142     141     158     159     
143     142     159     160     
144     143     160     161     
145     144     161     162     
146     145     162     163     
147     146     163     164     
148     147     164     165     
149     148     165     166     
150     149     166     167     
151     150     167     168     
152     151     168     169     
153     154     171     170     
155     153     170     172     
156     155     172     173     
157     156     173     174     
158     157     174     175     
159     158     175     176     
160     159     176     177     
161     160     177     178     
162     161     178     179     
163     162     179     180     
164     163     180     181     
165     164     181     182     
166     165     182     183     
167     166     183     184     
168     167     184     185     
169     168     185     186     
170     171     188     187     
172     170     187     189     
173     172     189     190     
174     173     190     191     
175     174     191     192     
176     175     192     193     
177     176     193     194     
178     177     194     195     
179     178     195     196     
180     179     196     197     
181     180     197     198     
182     181     198     199     
183     182     199     200     
184     183     200     201     
185     184     201     202     
186     185     202     203     
187     188     205     204     
189     187     204     206     
190     189     206     207     
191     190     207     208     
192     191     208     209     
193     192     209     210     
194     193     210     211     
195     194     211     212     
196     195     212     213     
197     196     213     214     
198     197     214     215     
199     198     215     216     
200     199     216     217     
201     200     217     218     
202     201     218     219     
203     202     219     220     
204     205     222     221     
206     204     221     223     
207     206     223     224     
208     207     224     225     
209     208     225     226     
210     209     226     227     
211     210     227     228     
212     211     228     229     
213     212     229     230     
214     213     230     231     
215     214     231     232     
216     215     232     233     
217     216     233     234     
218     217     234     235     
219     218     235     236     
220     219     236     237     
221     222     239     238     
223     221     238     240     
224     223     240     241     
225     224     241     242     
226     225     242     243     
227     226     243     244     
228     227     244     245     
229     228     245     246     
230     229     246     247     
231     230     247     248     
232     231     248     249     
233     232     249     250     
234     233     250     251     
235     234     251     252     
236     235     252     253     
237     236     253     254     
238     239     256     255     
240     238     255     257     
241     240     257     258     
242     241     258     259     
243     242     259     260     
244     243     260     261     
245     244     261     262     
246     245     262     263     
247     246     263     264     
248     247     264     265     
249     248     265     266     
250     249     266     267     
251     250     267     268     
252     251     268     269     
253     252     269     270     
254     253     270     271     
255     256     273     272     
257     255     272     274     
258     257     274     275     
259     258     275     276     
260     259     276     277     
261     260     277     278     
262     261     278     279     
263     262     279     280     
264     263     280     281     
265     264     281     282     
266     265     282     283     
267     266     283     284     
268     267     284     285     
269     268     285     286     
270     269     286     287     
271     270     287     288     

