Title = " tecplot file for 2D Cavity problem " 
variables = "x", "y", "z", "velX", "cellCentroidY" 
Zone T = "nmesh0" N = 293 E = 256 DATAPACKING = BLOCK, VARLOCATION = ([4-5]=CELLCENTERED),  ZONETYPE=FEQUADRILATERAL 
0.53125    0.53125    0.5    0.5    0.5    
0.5    0.5    0.5    0.5    0.5    
0.5    0.5    0.5    0.46875    0.46875    
0.46875    0.46875    0.46875    0.46875    0.46875    
0.46875    0.46875    0.46875    0.46875    0.46875    
0.46875    0.46875    0.46875    0.46875    0.46875    
0.4375    0.4375    0.4375    0.4375    0.4375    
0.4375    0.4375    0.4375    0.4375    0.4375    
0.4375    0.4375    0.4375    0.4375    0.4375    
0.4375    0.4375    0.40625    0.40625    0.40625    
0.40625    0.40625    0.40625    0.40625    0.40625    
0.40625    0.40625    0.40625    0.40625    0.40625    
0.40625    0.40625    0.40625    0.40625    0.375    
0.375    0.375    0.375    0.375    0.375    
0.375    0.375    0.375    0.375    0.375    
0.375    0.375    0.375    0.375    0.375    
0.375    0.34375    0.34375    0.34375    0.34375    
0.34375    0.34375    0.34375    0.34375    0.34375    
0.34375    0.34375    0.34375    0.34375    0.34375    
0.34375    0.34375    0.34375    0.3125    0.3125    
0.3125    0.3125    0.3125    0.3125    0.3125    
0.3125    0.3125    0.3125    0.3125    0.3125    
0.3125    0.3125    0.3125    0.3125    0.3125    
0.28125    0.28125    0.28125    0.28125    0.28125    
0.28125    0.28125    0.28125    0.28125    0.28125    
0.28125    0.28125    0.28125    0.28125    0.28125    
0.28125    0.28125    0.25    0.25    0.25    
0.25    0.25    0.25    0.25    0.25    
0.25    0.25    0.25    0.25    0.25    
0.25    0.25    0.25    0.25    0.25    
0.21875    0.21875    0.21875    0.21875    0.21875    
0.21875    0.21875    0.21875    0.21875    0.21875    
0.21875    0.21875    0.21875    0.21875    0.21875    
0.21875    0.21875    0.21875    0.1875    0.1875    
0.1875    0.1875    0.1875    0.1875    0.1875    
0.1875    0.1875    0.1875    0.1875    0.1875    
0.1875    0.1875    0.1875    0.1875    0.1875    
0.15625    0.15625    0.15625    0.15625    0.15625    
0.15625    0.15625    0.15625    0.15625    0.15625    
0.15625    0.15625    0.15625    0.15625    0.15625    
0.15625    0.15625    0.15625    0.125    0.125    
0.125    0.125    0.125    0.125    0.125    
0.125    0.125    0.125    0.125    0.125    
0.125    0.125    0.125    0.125    0.125    
0.125    0.09375    0.09375    0.09375    0.09375    
0.09375    0.09375    0.09375    0.09375    0.09375    
0.09375    0.09375    0.09375    0.09375    0.09375    
0.09375    0.09375    0.09375    0.09375    0.0625    
0.0625    0.0625    0.0625    0.0625    0.0625    
0.0625    0.0625    0.0625    0.0625    0.0625    
0.0625    0.0625    0.0625    0.0625    0.0625    
0.0625    0.0625    0.03125    0.03125    0.03125    
0.03125    0.03125    0.03125    0.03125    0.03125    
0.03125    0.03125    0.03125    0.03125    0.03125    
0.03125    0.03125    0.03125    0.03125    0.03125    
0.0    0.0    0.0    0.0    0.0    
0.0    0.0    0.0    0.0    0.0    
0.0    0.0    0.0    0.0    0.0    
0.0    0.0    0.0    
0.03125    0.0    0.40625    0.375    0.34375    
0.3125    0.1875    0.15625    0.125    0.09375    
0.0625    0.03125    0.0    0.5    0.46875    
0.4375    0.40625    0.375    0.34375    0.3125    
0.28125    0.25    0.21875    0.1875    0.15625    
0.125    0.09375    0.0625    0.03125    0.0    
0.5    0.46875    0.4375    0.40625    0.375    
0.34375    0.3125    0.28125    0.25    0.21875    
0.1875    0.15625    0.125    0.09375    0.0625    
0.03125    0.0    0.5    0.46875    0.4375    
0.40625    0.375    0.34375    0.3125    0.28125    
0.25    0.21875    0.1875    0.15625    0.125    
0.09375    0.0625    0.03125    0.0    0.5    
0.46875    0.4375    0.40625    0.375    0.34375    
0.3125    0.28125    0.25    0.21875    0.1875    
0.15625    0.125    0.09375    0.0625    0.03125    
0.0    0.5    0.46875    0.4375    0.40625    
0.375    0.34375    0.3125    0.28125    0.25    
0.21875    0.1875    0.15625    0.125    0.09375    
0.0625    0.03125    0.0    0.5    0.46875    
0.4375    0.40625    0.375    0.34375    0.3125    
0.28125    0.25    0.21875    0.1875    0.15625    
0.125    0.09375    0.0625    0.03125    0.0    
0.5    0.46875    0.4375    0.40625    0.375    
0.34375    0.3125    0.28125    0.25    0.21875    
0.1875    0.15625    0.125    0.09375    0.0625    
0.03125    0.0    0.5    0.53125    0.46875    
0.4375    0.40625    0.375    0.34375    0.3125    
0.28125    0.25    0.21875    0.1875    0.15625    
0.125    0.09375    0.0625    0.03125    0.0    
0.53125    0.5    0.46875    0.4375    0.40625    
0.375    0.34375    0.3125    0.28125    0.25    
0.21875    0.1875    0.15625    0.125    0.09375    
0.0625    0.03125    0.0    0.5    0.46875    
0.4375    0.40625    0.375    0.34375    0.3125    
0.28125    0.25    0.21875    0.1875    0.15625    
0.125    0.09375    0.0625    0.03125    0.0    
0.5    0.53125    0.46875    0.4375    0.40625    
0.375    0.34375    0.3125    0.28125    0.25    
0.21875    0.1875    0.15625    0.125    0.09375    
0.0625    0.03125    0.0    0.53125    0.5    
0.46875    0.4375    0.40625    0.375    0.34375    
0.3125    0.28125    0.25    0.21875    0.1875    
0.15625    0.125    0.09375    0.0625    0.03125    
0.0    0.53125    0.5    0.46875    0.4375    
0.40625    0.375    0.34375    0.3125    0.28125    
0.25    0.21875    0.1875    0.15625    0.125    
0.09375    0.0625    0.03125    0.0    0.53125    
0.5    0.46875    0.4375    0.40625    0.375    
0.34375    0.3125    0.28125    0.25    0.21875    
0.1875    0.15625    0.125    0.09375    0.0625    
0.03125    0.0    0.53125    0.5    0.46875    
0.4375    0.40625    0.375    0.34375    0.3125    
0.28125    0.25    0.21875    0.1875    0.15625    
0.125    0.09375    0.0625    0.03125    0.0    
0.53125    0.5    0.46875    0.4375    0.40625    
0.375    0.34375    0.3125    0.28125    0.25    
0.21875    0.1875    0.15625    0.125    0.09375    
0.0625    0.03125    0.0    
0.0    0.0    0.0    0.0    0.0    
0.0    0.0    0.0    0.0    0.0    
0.0    0.0    0.0    0.0    0.0    
0.0    0.0    0.0    0.0    0.0    
0.0    0.0    0.0    0.0    0.0    
0.0    0.0    0.0    0.0    0.0    
0.0    0.0    0.0    0.0    0.0    
0.0    0.0    0.0    0.0    0.0    
0.0    0.0    0.0    0.0    0.0    
0.0    0.0    0.0    0.0    0.0    
0.0    0.0    0.0    0.0    0.0    
0.0    0.0    0.0    0.0    0.0    
0.0    0.0    0.0    0.0    0.0    
0.0    0.0    0.0    0.0    0.0    
0.0    0.0    0.0    0.0    0.0    
0.0    0.0    0.0    0.0    0.0    
0.0    0.0    0.0    0.0    0.0    
0.0    0.0    0.0    0.0    0.0    
0.0    0.0    0.0    0.0    0.0    
0.0    0.0    0.0    0.0    0.0    
0.0    0.0    0.0    0.0    0.0    
0.0    0.0    0.0    0.0    0.0    
0.0    0.0    0.0    0.0    0.0    
0.0    0.0    0.0    0.0    0.0    
0.0    0.0    0.0    0.0    0.0    
0.0    0.0    0.0    0.0    0.0    
0.0    0.0    0.0    0.0    0.0    
0.0    0.0    0.0    0.0    0.0    
0.0    0.0    0.0    0.0    0.0    
0.0    0.0    0.0    0.0    0.0    
0.0    0.0    0.0    0.0    0.0    
0.0    0.0    0.0    0.0    0.0    
0.0    0.0    0.0    0.0    0.0    
0.0    0.0    0.0    0.0    0.0    
0.0    0.0    0.0    0.0    0.0    
0.0    0.0    0.0    0.0    0.0    
0.0    0.0    0.0    0.0    0.0    
0.0    0.0    0.0    0.0    0.0    
0.0    0.0    0.0    0.0    0.0    
0.0    0.0    0.0    0.0    0.0    
0.0    0.0    0.0    0.0    0.0    
0.0    0.0    0.0    0.0    0.0    
0.0    0.0    0.0    0.0    0.0    
0.0    0.0    0.0    0.0    0.0    
0.0    0.0    0.0    0.0    0.0    
0.0    0.0    0.0    0.0    0.0    
0.0    0.0    0.0    0.0    0.0    
0.0    0.0    0.0    0.0    0.0    
0.0    0.0    0.0    0.0    0.0    
0.0    0.0    0.0    0.0    0.0    
0.0    0.0    0.0    0.0    0.0    
0.0    0.0    0.0    0.0    0.0    
0.0    0.0    0.0    0.0    0.0    
0.0    0.0    0.0    0.0    0.0    
0.0    0.0    0.0    0.0    0.0    
0.0    0.0    0.0    0.0    0.0    
0.0    0.0    0.0    0.0    0.0    
0.0    0.0    0.0    0.0    0.0    
0.0    0.0    0.0    
2.16078836227    2.1607883695    68.1695272718    60.6149302722    67.553799441    
53.6134417512    60.0618214083    53.1201064367    24.9086065124    20.0663382958    
24.6739390913    15.4135487737    19.8768595335    10.9065549876    15.2677529789    
6.50285373566    10.8032624491    6.4412178223    2.14029972916    93.9732936208    
84.442594322    92.3383163758    75.6588355107    82.9470567439    74.2990962144    
66.3250132901    58.9584492279    46.6688564972    52.1363057854    40.6512559458    
45.7987751657    35.0133528975    39.8892481809    29.7038660479    34.3541356834    
29.1426297818    24.2064241321    19.4994076583    14.9773411304    10.5975239883    
6.31845536957    2.09949245914    89.8879801552    80.7082196747    72.2654791109    
64.4887081995    57.3106563846    50.6678922141    44.5006900447    38.7528257202    
33.3713117132    28.3060931257    23.5097199756    18.9370058124    14.544679923    
10.2910370153    6.13558722538    2.03870720182    86.6259821549    77.7323624876    
69.5658923008    62.053683955    55.1275758168    48.7239165961    42.7832670175    
37.2500529077    32.0721922471    27.2007110252    22.5893567824    18.1942157139    
13.9733357176    9.88635695526    5.89414931847    1.95845633663    82.5591372169    
74.0293556289    66.2120435995    59.0325594436    52.4220462827    46.3169312936    
40.658408497    35.3919265756    30.4666933324    25.8352018902    21.4527804241    
17.2771645029    13.2680903027    9.38690575481    5.5961967845    1.85942516661    
77.6989481756    69.613879044    62.2203669849    55.4424638909    49.2111185359    
43.4633537737    38.141509053    33.1925515481    28.5674525744    24.2206227699    
20.1093984868    16.1935715714    12.4349552164    8.79697899248    5.244306908    
1.7424727149    72.0634838325    64.5068452338    57.6130813699    51.3058105598    
45.5166101649    40.1838561857    35.2517223689    30.6693179667    26.3899426258    
22.3704381095    18.5706191666    14.9527680702    11.4811799951    8.12174809875    
4.84157915242    1.60863150096    65.6794681735    58.7369365521    52.4193026506    
46.6510867827    41.3656553469    36.5037384226    32.0122062417    27.8430553148    
23.9525618261    20.3005678712    16.8498719792    13.5657015514    10.4152485845    
7.36725427595    4.39163010177    1.45910563957    73.3330201522    58.5844320336    
52.3421300691    46.6761058596    41.5135785278    36.7911860077    32.453235878    
28.4503088604    24.7381351887    21.2766814972    18.0293995382    14.9625993387    
12.0449175491    9.24685853616    6.5403903169    3.89858134575    1.29526659564    
50.8287160345    45.371045693    40.4294121504    35.9359354379    31.8322742477    
28.0677102127    24.5976581081    21.382495078    18.3866294137    15.5777494458    
12.9262082732    10.4045107785    7.98687769619    5.64886712138    3.36703836693    
1.11864599399    42.4770593347    37.8839244187    33.7345615736    29.9684768037    
26.5342653102    23.387672607    20.4901182628    17.8075575956    15.3095916179    
12.9687605567    10.75997352    8.66003960372    6.64727435729    4.70116210653    
2.80205901147    0.930925007301    47.5861261925    37.6867060547    33.6094706094    
29.9530310312    26.6564328948    23.6691448651    20.9486375716    18.458596621    
16.167584735    14.0480254054    12.0754189035    10.2277276288    8.48488564853    
6.82839975828    5.2410180253    3.70644794343    2.20911056168    0.733920031478    
27.2917850264    24.3210859348    21.662296176    19.2689940832    17.10303217    
15.1325434731    13.3304915556    11.673598638    10.1415403759    8.71633095203    
7.38184539758    6.12344168127    4.92765575123    3.78195004484    2.67450107691    
1.59401526366    0.529564588401    16.5274708662    14.7207918769    13.1060736332    
11.6542150724    10.341446242    9.14801258055    8.05722747778    7.05477787411    
6.1282064986    5.26651912271    4.45988132116    3.69937992193    2.97683151801    
2.28462532561    1.61559106108    0.962884825429    0.319887648442    5.53490190744    
4.92853703759    4.38699139872    3.90034632189    3.46052513732    3.06083312272    
2.69562789549    2.36007887752    2.04998861825    1.76165771617    1.49178084059    
1.23736516702    0.995665073218    0.76412868251    0.540353014343    0.322045333721    
0.106988830111    
0.015625    0.015625    0.390625    0.359375    0.390625    
0.328125    0.359375    0.328125    0.171875    0.140625    
0.171875    0.109375    0.140625    0.078125    0.109375    
0.046875    0.078125    0.046875    0.015625    0.484375    
0.453125    0.484375    0.421875    0.453125    0.421875    
0.390625    0.359375    0.296875    0.328125    0.265625    
0.296875    0.234375    0.265625    0.203125    0.234375    
0.203125    0.171875    0.140625    0.109375    0.078125    
0.046875    0.015625    0.484375    0.453125    0.421875    
0.390625    0.359375    0.328125    0.296875    0.265625    
0.234375    0.203125    0.171875    0.140625    0.109375    
0.078125    0.046875    0.015625    0.484375    0.453125    
0.421875    0.390625    0.359375    0.328125    0.296875    
0.265625    0.234375    0.203125    0.171875    0.140625    
0.109375    0.078125    0.046875    0.015625    0.484375    
0.453125    0.421875    0.390625    0.359375    0.328125    
0.296875    0.265625    0.234375    0.203125    0.171875    
0.140625    0.109375    0.078125    0.046875    0.015625    
0.484375    0.453125    0.421875    0.390625    0.359375    
0.328125    0.296875    0.265625    0.234375    0.203125    
0.171875    0.140625    0.109375    0.078125    0.046875    
0.015625    0.484375    0.453125    0.421875    0.390625    
0.359375    0.328125    0.296875    0.265625    0.234375    
0.203125    0.171875    0.140625    0.109375    0.078125    
0.046875    0.015625    0.484375    0.453125    0.421875    
0.390625    0.359375    0.328125    0.296875    0.265625    
0.234375    0.203125    0.171875    0.140625    0.109375    
0.078125    0.046875    0.015625    0.515625    0.484375    
0.453125    0.421875    0.390625    0.359375    0.328125    
0.296875    0.265625    0.234375    0.203125    0.171875    
0.140625    0.109375    0.078125    0.046875    0.015625    
0.484375    0.453125    0.421875    0.390625    0.359375    
0.328125    0.296875    0.265625    0.234375    0.203125    
0.171875    0.140625    0.109375    0.078125    0.046875    
0.015625    0.484375    0.453125    0.421875    0.390625    
0.359375    0.328125    0.296875    0.265625    0.234375    
0.203125    0.171875    0.140625    0.109375    0.078125    
0.046875    0.015625    0.515625    0.515625    0.484375    
0.453125    0.421875    0.390625    0.359375    0.328125    
0.296875    0.265625    0.234375    0.203125    0.171875    
0.140625    0.109375    0.078125    0.046875    0.015625    
0.515625    0.484375    0.453125    0.421875    0.390625    
0.359375    0.328125    0.296875    0.265625    0.234375    
0.203125    0.171875    0.140625    0.109375    0.078125    
0.046875    0.015625    0.515625    0.484375    0.453125    
0.421875    0.390625    0.359375    0.328125    0.296875    
0.265625    0.234375    0.203125    0.171875    0.140625    
0.109375    0.078125    0.046875    0.015625    0.515625    
0.484375    0.453125    0.421875    0.390625    0.359375    
0.328125    0.296875    0.265625    0.234375    0.203125    
0.171875    0.140625    0.109375    0.078125    0.046875    
0.015625    
12     13     2     1     
13     12     29     30     
18     4     3     17     
4     18     19     5     
18     17     34     35     
5     19     20     6     
19     18     35     36     
20     19     36     37     
25     8     7     24     
8     25     26     9     
25     24     41     42     
9     26     27     10     
26     25     42     43     
10     27     28     11     
27     26     43     44     
11     28     29     12     
28     27     44     45     
29     28     45     46     
30     29     46     47     
32     15     14     31     
15     32     33     16     
32     31     48     49     
16     33     34     17     
33     32     49     50     
34     33     50     51     
35     34     51     52     
36     35     52     53     
20     37     38     21     
37     36     53     54     
21     38     39     22     
38     37     54     55     
22     39     40     23     
39     38     55     56     
23     40     41     24     
40     39     56     57     
41     40     57     58     
42     41     58     59     
43     42     59     60     
44     43     60     61     
45     44     61     62     
46     45     62     63     
47     46     63     64     
49     48     65     66     
50     49     66     67     
51     50     67     68     
52     51     68     69     
53     52     69     70     
54     53     70     71     
55     54     71     72     
56     55     72     73     
57     56     73     74     
58     57     74     75     
59     58     75     76     
60     59     76     77     
61     60     77     78     
62     61     78     79     
63     62     79     80     
64     63     80     81     
66     65     82     83     
67     66     83     84     
68     67     84     85     
69     68     85     86     
70     69     86     87     
71     70     87     88     
72     71     88     89     
73     72     89     90     
74     73     90     91     
75     74     91     92     
76     75     92     93     
77     76     93     94     
78     77     94     95     
79     78     95     96     
80     79     96     97     
81     80     97     98     
83     82     99     100     
84     83     100     101     
85     84     101     102     
86     85     102     103     
87     86     103     104     
88     87     104     105     
89     88     105     106     
90     89     106     107     
91     90     107     108     
92     91     108     109     
93     92     109     110     
94     93     110     111     
95     94     111     112     
96     95     112     113     
97     96     113     114     
98     97     114     115     
100     99     116     117     
101     100     117     118     
102     101     118     119     
103     102     119     120     
104     103     120     121     
105     104     121     122     
106     105     122     123     
107     106     123     124     
108     107     124     125     
109     108     125     126     
110     109     126     127     
111     110     127     128     
112     111     128     129     
113     112     129     130     
114     113     130     131     
115     114     131     132     
117     116     133     135     
118     117     135     136     
119     118     136     137     
120     119     137     138     
121     120     138     139     
122     121     139     140     
123     122     140     141     
124     123     141     142     
125     124     142     143     
126     125     143     144     
127     126     144     145     
128     127     145     146     
129     128     146     147     
130     129     147     148     
131     130     148     149     
132     131     149     150     
135     133     152     153     
136     135     153     154     
137     136     154     155     
138     137     155     156     
139     138     156     157     
140     139     157     158     
141     140     158     159     
142     141     159     160     
143     142     160     161     
144     143     161     162     
145     144     162     163     
146     145     163     164     
147     146     164     165     
148     147     165     166     
149     148     166     167     
150     149     167     168     
152     133     134     151     
153     152     169     170     
154     153     170     171     
155     154     171     172     
156     155     172     173     
157     156     173     174     
158     157     174     175     
159     158     175     176     
160     159     176     177     
161     160     177     178     
162     161     178     179     
163     162     179     180     
164     163     180     181     
165     164     181     182     
166     165     182     183     
167     166     183     184     
168     167     184     185     
170     169     186     188     
171     170     188     189     
172     171     189     190     
173     172     190     191     
174     173     191     192     
175     174     192     193     
176     175     193     194     
177     176     194     195     
178     177     195     196     
179     178     196     197     
180     179     197     198     
181     180     198     199     
182     181     199     200     
183     182     200     201     
184     183     201     202     
185     184     202     203     
188     186     205     206     
189     188     206     207     
190     189     207     208     
191     190     208     209     
192     191     209     210     
193     192     210     211     
194     193     211     212     
195     194     212     213     
196     195     213     214     
197     196     214     215     
198     197     215     216     
199     198     216     217     
200     199     217     218     
201     200     218     219     
202     201     219     220     
203     202     220     221     
205     186     187     204     
205     204     222     223     
206     205     223     224     
207     206     224     225     
208     207     225     226     
209     208     226     227     
210     209     227     228     
211     210     228     229     
212     211     229     230     
213     212     230     231     
214     213     231     232     
215     214     232     233     
216     215     233     234     
217     216     234     235     
218     217     235     236     
219     218     236     237     
220     219     237     238     
221     220     238     239     
223     222     240     241     
224     223     241     242     
225     224     242     243     
226     225     243     244     
227     226     244     245     
228     227     245     246     
229     228     246     247     
230     229     247     248     
231     230     248     249     
232     231     249     250     
233     232     250     251     
234     233     251     252     
235     234     252     253     
236     235     253     254     
237     236     254     255     
238     237     255     256     
239     238     256     257     
241     240     258     259     
242     241     259     260     
243     242     260     261     
244     243     261     262     
245     244     262     263     
246     245     263     264     
247     246     264     265     
248     247     265     266     
249     248     266     267     
250     249     267     268     
251     250     268     269     
252     251     269     270     
253     252     270     271     
254     253     271     272     
255     254     272     273     
256     255     273     274     
257     256     274     275     
259     258     276     277     
260     259     277     278     
261     260     278     279     
262     261     279     280     
263     262     280     281     
264     263     281     282     
265     264     282     283     
266     265     283     284     
267     266     284     285     
268     267     285     286     
269     268     286     287     
270     269     287     288     
271     270     288     289     
272     271     289     290     
273     272     290     291     
274     273     291     292     
275     274     292     293     

