Title = " tecplot out file" 
variables = "x", "y", "z", "velX", "velY", "velZ","density","pressure","viscosity","temperature", "collisionFrequency",
Zone T = "nmesh0" N = 121 E = 100 DATAPACKING = BLOCK, VARLOCATION = ([4-11]=CELLCENTERED),  ZONETYPE=FEQUADRILATERAL 
0.0    
0.0    
0.1    
0.1    
0.0    

0.1    
0.0    
0.1    
0.0    
0.1    

0.0    
0.1    
0.0    
0.1    
0.0    

0.1    
0.0    
0.1    
0.0    
0.1    

0.0    
0.1    
0.2    
0.2    
0.2    

0.2    
0.2    
0.2    
0.2    
0.2    

0.2    
0.2    
0.2    
0.3    
0.3    

0.3    
0.3    
0.3    
0.3    
0.3    

0.3    
0.3    
0.3    
0.3    
0.4    

0.4    
0.4    
0.4    
0.4    
0.4    

0.4    
0.4    
0.4    
0.4    
0.4    

0.5    
0.5    
0.5    
0.5    
0.5    

0.5    
0.5    
0.5    
0.5    
0.5    

0.5    
0.6    
0.6    
0.6    
0.6    

0.6    
0.6    
0.6    
0.6    
0.6    

0.6    
0.6    
0.7    
0.7    
0.7    

0.7    
0.7    
0.7    
0.7    
0.7    

0.7    
0.7    
0.7    
0.8    
0.8    

0.8    
0.8    
0.8    
0.8    
0.8    

0.8    
0.8    
0.8    
0.8    
0.9    

0.9    
0.9    
0.9    
0.9    
0.9    

0.9    
0.9    
0.9    
0.9    
0.9    

1.0    
1.0    
1.0    
1.0    
1.0    

1.0    
1.0    
1.0    
1.0    
1.0    

1.0    
1.0    
0.9    
1.0    
0.9    
0.8    

0.8    
0.7    
0.7    
0.6    
0.6    

0.5    
0.5    
0.4    
0.4    
0.3    

0.3    
0.2    
0.2    
0.1    
0.1    

0.0    
0.0    
1.0    
0.9    
0.8    

0.7    
0.6    
0.5    
0.4    
0.3    

0.2    
0.1    
0.0    
1.0    
0.9    

0.8    
0.7    
0.6    
0.5    
0.4    

0.3    
0.2    
0.1    
0.0    
1.0    

0.9    
0.8    
0.7    
0.6    
0.5    

0.4    
0.3    
0.2    
0.1    
0.0    

1.0    
0.9    
0.8    
0.7    
0.6    

0.5    
0.4    
0.3    
0.2    
0.1    

0.0    
1.0    
0.9    
0.8    
0.7    

0.6    
0.5    
0.4    
0.3    
0.2    

0.1    
0.0    
1.0    
0.9    
0.8    

0.7    
0.6    
0.5    
0.4    
0.3    

0.2    
0.1    
0.0    
1.0    
0.9    

0.8    
0.7    
0.6    
0.5    
0.4    

0.3    
0.2    
0.1    
0.0    
1.0    

0.9    
0.8    
0.7    
0.6    
0.5    

0.4    
0.3    
0.2    
0.1    
0.0    

0.9    
1.0    
0.8    
0.7    
0.6    

0.5    
0.4    
0.3    
0.2    
0.1    

0.0    
0.0    0.0    0.0    0.0    0.0    
0.0    0.0    0.0    0.0    0.0    
0.0    0.0    0.0    0.0    0.0    
0.0    0.0    0.0    0.0    0.0    
0.0    0.0    0.0    0.0    0.0    
0.0    0.0    0.0    0.0    0.0    
0.0    0.0    0.0    0.0    0.0    
0.0    0.0    0.0    0.0    0.0    
0.0    0.0    0.0    0.0    0.0    
0.0    0.0    0.0    0.0    0.0    
0.0    0.0    0.0    0.0    0.0    
0.0    0.0    0.0    0.0    0.0    
0.0    0.0    0.0    0.0    0.0    
0.0    0.0    0.0    0.0    0.0    
0.0    0.0    0.0    0.0    0.0    
0.0    0.0    0.0    0.0    0.0    
0.0    0.0    0.0    0.0    0.0    
0.0    0.0    0.0    0.0    0.0    
0.0    0.0    0.0    0.0    0.0    
0.0    0.0    0.0    0.0    0.0    
0.0    0.0    0.0    0.0    0.0    
0.0    0.0    0.0    0.0    0.0    
0.0    0.0    0.0    0.0    0.0    
0.0    0.0    0.0    0.0    0.0    
0.0    
-6.87664556525e-08    -1.39024336393e-07    -1.39043301008e-07    -1.39043311142e-07    -1.39043311093e-07    
-1.39043311093e-07    -1.39043311093e-07    -1.39043300863e-07    -1.39024336499e-07    -6.87664559302e-08    
-6.08928847749e-11    -1.25924474207e-10    -1.25987442053e-10    -1.25987525615e-10    -1.25987580849e-10    
-1.25987525337e-10    -1.25987477804e-10    -1.25987661574e-10    -1.2592346051e-10    -6.08933001857e-11    
-6.42290872199e-14    -1.33407903373e-13    -1.33375502979e-13    -1.33809433513e-13    -1.3372605493e-13    
-1.33726162503e-13    -1.33696160446e-13    -1.33583912417e-13    -1.33558689614e-13    -6.44462316515e-14    
1.23820462487e-17    -7.95403243701e-17    -1.13268587699e-16    -1.98503387084e-16    -3.66357152956e-16    
-1.99178352285e-16    -2.18324053296e-16    7.421179317e-17    3.22212915536e-16    -1.75585168454e-16    
7.9059774768e-17    -2.15653622805e-17    5.44754132844e-17    -1.0253868778e-16    -1.02644006087e-16    
-1.02424311846e-16    -6.2284493485e-17    1.31832064557e-16    4.25609513549e-16    -1.9770356788e-16    
7.90600940693e-17    -2.15777154972e-17    -8.76514743309e-19    -1.09471093391e-16    -2.20380350863e-16    
-1.02639479943e-16    -6.22635258757e-17    1.31396491409e-16    4.25665343632e-16    -9.72213387716e-17    
1.48067895716e-16    8.94446375278e-17    2.21041426002e-16    6.37818011056e-17    6.38940633969e-17    
6.38940495836e-17    4.8758827142e-17    2.97930020936e-16    5.36687696657e-16    -1.42190694528e-16    
6.4690516893e-14    1.33357355109e-13    1.33814345797e-13    1.33712094514e-13    1.3377487453e-13    
1.33774874097e-13    1.33863833699e-13    1.33537029494e-13    1.33432457474e-13    6.41844800932e-14    
6.08931300219e-11    1.2592363153e-10    1.25987522453e-10    1.25987453549e-10    1.25987392616e-10    
1.25987458467e-10    1.25987428387e-10    1.25987680925e-10    1.25924425244e-10    6.08929146578e-11    
6.8766460481e-08    1.39024338848e-07    1.39043304139e-07    1.39043314243e-07    1.39043314337e-07    
1.39043314299e-07    1.39043314315e-07    1.39043303869e-07    1.39024339698e-07    6.87664597047e-08    

6.82179948682e-08    6.0842865487e-11    6.46360086533e-14    2.11692663313e-16    1.12391659608e-16    
1.12391659608e-16    2.91248956618e-17    -6.43094340924e-14    -6.08423345614e-11    -6.82179939185e-08    
1.39024339659e-07    1.25923904321e-10    1.33435983394e-13    3.85064772986e-17    -8.3102209583e-17    
-2.75919861902e-17    -1.55690617405e-16    -1.33778463145e-13    -1.25923617606e-10    -1.39024338089e-07    
1.39043303749e-07    1.25987697962e-10    1.33718210144e-13    2.44370269504e-16    7.46637473167e-17    
7.46368544216e-17    -4.01695867873e-17    -1.33306333739e-13    -1.25987702019e-10    -1.39043302663e-07    
1.39043314363e-07    1.25987732985e-10    1.33525753115e-13    1.62275428544e-16    1.4717022735e-17    
1.03156804735e-16    -1.07828867753e-16    -1.33321481327e-13    -1.25987680078e-10    -1.39043313089e-07    
1.39043314393e-07    1.2598771789e-10    1.33607354766e-13    2.25568726516e-16    7.62112728527e-17    
7.62187446488e-17    -1.08739701906e-16    -1.33355269909e-13    -1.259876214e-10    -1.39043313197e-07    
1.39043314393e-07    1.25987717889e-10    1.33524103767e-13    1.42297958106e-16    1.37775847033e-17    
7.62186742545e-17    -1.08737348142e-16    -1.33383134124e-13    -1.25987676896e-10    -1.39043313119e-07    
1.39043314476e-07    1.25987745644e-10    1.33607382364e-13    2.25555844317e-16    6.23408869174e-17    
6.23408801273e-17    -1.08737348142e-16    -1.33327622948e-13    -1.25987621384e-10    -1.3904331317e-07    
1.39043304436e-07    1.25987802135e-10    1.33535705748e-13    1.78151384473e-17    -8.98885435444e-17    
-6.21329600623e-17    -1.99424032348e-16    -1.33549489064e-13    -1.25987811818e-10    -1.39043303429e-07    
1.39024338459e-07    1.25923768747e-10    1.33667043182e-13    2.97329874433e-16    1.38071443759e-16    
1.68824119144e-16    -1.23184074201e-17    -1.33228571634e-13    -1.2592384683e-10    -1.39024337511e-07    
6.82179970178e-08    6.08425186847e-11    6.4500681974e-14    6.87613385216e-17    1.65924405449e-17    
2.67769897638e-18    -5.5391226213e-17    -6.43186118471e-14    -6.08426707325e-11    -6.8217995877e-08    

2.51338464231e-17    3.30651600431e-17    2.95052627141e-17    2.63396840561e-17    1.03337511765e-17    
1.03337511765e-17    1.03337511765e-17    2.02280210502e-17    1.91514415904e-17    2.13076170154e-17    
3.5302789467e-17    3.84591736809e-17    3.02645411512e-17    3.27493127409e-17    3.96881834387e-17    
3.96881304474e-17    3.14540312152e-17    2.63220540465e-17    1.65266665915e-17    2.65340721049e-17    
2.78555231861e-17    2.55237793281e-17    3.03378198266e-17    1.60796422151e-17    1.63032326487e-17    
1.63065678424e-17    1.63097336387e-17    3.2232499535e-17    1.67961044124e-17    2.99771914456e-17    
3.30099327944e-17    2.515607594e-17    3.87480722633e-17    3.53198462417e-17    3.57016438166e-17    
2.76146052825e-17    4.08577382613e-17    2.44657729189e-17    3.06219200398e-17    7.68601326091e-18    
3.1292006769e-17    2.55568021027e-17    4.07285356575e-17    3.82717398404e-17    2.26897222955e-17    
2.26626888866e-17    3.83261905291e-17    2.16952767028e-17    3.48534839542e-17    2.52575324524e-17    
3.12918621229e-17    2.55575263261e-17    3.98350692277e-17    3.19837059158e-17    3.19905086531e-17    
2.26931386343e-17    3.83295624095e-17    2.16690242897e-17    3.48509578515e-17    9.41398771282e-18    
3.12952502579e-17    1.8618629262e-17    2.68542719193e-17    3.13599835938e-17    2.96320391101e-17    
2.96320356979e-17    3.83295624095e-17    2.16690242897e-17    3.48509578515e-17    2.52575324524e-17    
2.55168859585e-17    2.71422214886e-17    1.85978977385e-17    2.57998851306e-17    2.55897943573e-17    
2.55898476442e-17    2.60812631067e-17    2.42625293504e-17    2.95119380771e-17    2.02353112758e-17    
3.45675833366e-17    2.36987118147e-17    2.45843159489e-17    2.83248398376e-17    2.86195097507e-17    
2.46952204145e-17    1.76785688762e-17    2.72912653153e-17    1.74962074751e-17    1.85156001445e-17    
1.51493939344e-17    2.88102099883e-17    3.15857098509e-17    2.25821018293e-17    1.58926878665e-17    
2.28023841572e-17    1.33560557874e-17    2.40226540138e-17    2.68202835621e-17    2.64726397097e-17    

0.999999552532    0.999999554392    0.999999554458    0.999999554458    0.999999554458    
0.999999554458    0.999999554458    0.999999554458    0.999999554392    0.999999552532    
0.999999554392    0.999999544507    0.999999544573    0.999999544573    0.999999544573    
0.999999544573    0.999999544573    0.999999544573    0.999999544507    0.999999554392    
0.999999554458    0.999999544573    0.999999544639    0.999999544639    0.999999544639    
0.999999544639    0.999999544639    0.999999544639    0.999999544573    0.999999554458    
0.999999554458    0.999999544573    0.999999544639    0.99999954464    0.99999954464    
0.99999954464    0.99999954464    0.999999544639    0.999999544573    0.999999554458    
0.999999554458    0.999999544573    0.999999544639    0.99999954464    0.99999954464    
0.99999954464    0.99999954464    0.999999544639    0.999999544573    0.999999554458    
0.999999554458    0.999999544573    0.999999544639    0.99999954464    0.99999954464    
0.99999954464    0.99999954464    0.999999544639    0.999999544573    0.999999554458    
0.999999554458    0.999999544573    0.999999544639    0.99999954464    0.99999954464    
0.99999954464    0.99999954464    0.999999544639    0.999999544573    0.999999554458    
0.999999554458    0.999999544573    0.999999544639    0.999999544639    0.999999544639    
0.999999544639    0.999999544639    0.999999544639    0.999999544573    0.999999554458    
0.999999554392    0.999999544507    0.999999544573    0.999999544573    0.999999544573    
0.999999544573    0.999999544573    0.999999544573    0.999999544507    0.999999554392    
0.999999552532    0.999999554392    0.999999554458    0.999999554458    0.999999554458    
0.999999554458    0.999999554458    0.999999554458    0.999999554392    0.999999552532    

1.00000602126    1.00000629145    1.00000629162    1.00000629162    1.00000629162    
1.00000629162    1.00000629162    1.00000629162    1.00000629145    1.00000602126    
1.00000629145    1.0000068389    1.00000683919    1.00000683919    1.00000683919    
1.00000683919    1.00000683919    1.00000683919    1.0000068389    1.00000629145    
1.00000629162    1.00000683919    1.00000683947    1.00000683948    1.00000683948    
1.00000683948    1.00000683948    1.00000683947    1.00000683919    1.00000629162    
1.00000629162    1.00000683919    1.00000683948    1.00000683948    1.00000683948    
1.00000683948    1.00000683948    1.00000683948    1.00000683919    1.00000629162    
1.00000629162    1.00000683919    1.00000683948    1.00000683948    1.00000683948    
1.00000683948    1.00000683948    1.00000683948    1.00000683919    1.00000629162    
1.00000629162    1.00000683919    1.00000683948    1.00000683948    1.00000683948    
1.00000683948    1.00000683948    1.00000683948    1.00000683919    1.00000629162    
1.00000629162    1.00000683919    1.00000683948    1.00000683948    1.00000683948    
1.00000683948    1.00000683948    1.00000683948    1.00000683919    1.00000629162    
1.00000629162    1.00000683919    1.00000683947    1.00000683948    1.00000683948    
1.00000683948    1.00000683948    1.00000683947    1.00000683919    1.00000629162    
1.00000629145    1.0000068389    1.00000683919    1.00000683919    1.00000683919    
1.00000683919    1.00000683919    1.00000683919    1.0000068389    1.00000629145    
1.00000602126    1.00000629145    1.00000629162    1.00000629162    1.00000629162    
1.00000629162    1.00000629162    1.00000629162    1.00000629145    1.00000602126    

2.25028827667e-07    2.25028876576e-07    2.25028876595e-07    2.25028876595e-07    2.25028876595e-07    
2.25028876595e-07    2.25028876595e-07    2.25028876595e-07    2.25028876576e-07    2.25028827667e-07    
2.25028876576e-07    2.25028978164e-07    2.25028978204e-07    2.25028978204e-07    2.25028978204e-07    
2.25028978204e-07    2.25028978204e-07    2.25028978204e-07    2.25028978164e-07    2.25028876576e-07    
2.25028876595e-07    2.25028978204e-07    2.25028978244e-07    2.25028978244e-07    2.25028978244e-07    
2.25028978244e-07    2.25028978244e-07    2.25028978244e-07    2.25028978204e-07    2.25028876595e-07    
2.25028876595e-07    2.25028978204e-07    2.25028978244e-07    2.25028978244e-07    2.25028978244e-07    
2.25028978244e-07    2.25028978244e-07    2.25028978244e-07    2.25028978204e-07    2.25028876595e-07    
2.25028876595e-07    2.25028978204e-07    2.25028978244e-07    2.25028978244e-07    2.25028978244e-07    
2.25028978244e-07    2.25028978244e-07    2.25028978244e-07    2.25028978204e-07    2.25028876595e-07    
2.25028876595e-07    2.25028978204e-07    2.25028978244e-07    2.25028978244e-07    2.25028978244e-07    
2.25028978244e-07    2.25028978244e-07    2.25028978244e-07    2.25028978204e-07    2.25028876595e-07    
2.25028876595e-07    2.25028978204e-07    2.25028978244e-07    2.25028978244e-07    2.25028978244e-07    
2.25028978244e-07    2.25028978244e-07    2.25028978244e-07    2.25028978204e-07    2.25028876595e-07    
2.25028876595e-07    2.25028978204e-07    2.25028978244e-07    2.25028978244e-07    2.25028978244e-07    
2.25028978244e-07    2.25028978244e-07    2.25028978244e-07    2.25028978204e-07    2.25028876595e-07    
2.25028876576e-07    2.25028978164e-07    2.25028978204e-07    2.25028978204e-07    2.25028978204e-07    
2.25028978204e-07    2.25028978204e-07    2.25028978204e-07    2.25028978164e-07    2.25028876576e-07    
2.25028827667e-07    2.25028876576e-07    2.25028876595e-07    2.25028876595e-07    2.25028876595e-07    
2.25028876595e-07    2.25028876595e-07    2.25028876595e-07    2.25028876576e-07    2.25028827667e-07    

1.00000646873    1.00000673706    1.00000673716    1.00000673716    1.00000673716    
1.00000673716    1.00000673716    1.00000673716    1.00000673706    1.00000646873    
1.00000673706    1.0000072944    1.00000729462    1.00000729462    1.00000729462    
1.00000729462    1.00000729462    1.00000729462    1.0000072944    1.00000673706    
1.00000673716    1.00000729462    1.00000729484    1.00000729484    1.00000729484    
1.00000729484    1.00000729484    1.00000729484    1.00000729462    1.00000673716    
1.00000673716    1.00000729462    1.00000729484    1.00000729484    1.00000729484    
1.00000729484    1.00000729484    1.00000729484    1.00000729462    1.00000673716    
1.00000673716    1.00000729462    1.00000729484    1.00000729484    1.00000729484    
1.00000729484    1.00000729484    1.00000729484    1.00000729462    1.00000673716    
1.00000673716    1.00000729462    1.00000729484    1.00000729484    1.00000729484    
1.00000729484    1.00000729484    1.00000729484    1.00000729462    1.00000673716    
1.00000673716    1.00000729462    1.00000729484    1.00000729484    1.00000729484    
1.00000729484    1.00000729484    1.00000729484    1.00000729462    1.00000673716    
1.00000673716    1.00000729462    1.00000729484    1.00000729484    1.00000729484    
1.00000729484    1.00000729484    1.00000729484    1.00000729462    1.00000673716    
1.00000673706    1.0000072944    1.00000729462    1.00000729462    1.00000729462    
1.00000729462    1.00000729462    1.00000729462    1.0000072944    1.00000673706    
1.00000646873    1.00000673706    1.00000673716    1.00000673716    1.00000673716    
1.00000673716    1.00000673716    1.00000673716    1.00000673706    1.00000646873    

1239.53491451    1239.53498001    1239.53498012    1239.53498012    1239.53498012    
1239.53498012    1239.53498012    1239.53498012    1239.53498001    1239.53491451    
1239.53498001    1239.53509902    1239.53509915    1239.53509915    1239.53509915    
1239.53509915    1239.53509915    1239.53509915    1239.53509902    1239.53498001    
1239.53498012    1239.53509915    1239.53509929    1239.53509929    1239.53509929    
1239.53509929    1239.53509929    1239.53509929    1239.53509915    1239.53498012    
1239.53498012    1239.53509915    1239.53509929    1239.53509929    1239.53509929    
1239.53509929    1239.53509929    1239.53509929    1239.53509915    1239.53498012    
1239.53498012    1239.53509915    1239.53509929    1239.53509929    1239.53509929    
1239.53509929    1239.53509929    1239.53509929    1239.53509915    1239.53498012    
1239.53498012    1239.53509915    1239.53509929    1239.53509929    1239.53509929    
1239.53509929    1239.53509929    1239.53509929    1239.53509915    1239.53498012    
1239.53498012    1239.53509915    1239.53509929    1239.53509929    1239.53509929    
1239.53509929    1239.53509929    1239.53509929    1239.53509915    1239.53498012    
1239.53498012    1239.53509915    1239.53509929    1239.53509929    1239.53509929    
1239.53509929    1239.53509929    1239.53509929    1239.53509915    1239.53498012    
1239.53498001    1239.53509902    1239.53509915    1239.53509915    1239.53509915    
1239.53509915    1239.53509915    1239.53509915    1239.53509902    1239.53498001    
1239.53491451    1239.53498001    1239.53498012    1239.53498012    1239.53498012    
1239.53498012    1239.53498012    1239.53498012    1239.53498001    1239.53491451    

2     4     3     1     4     2     5     6     6     5     7     8     8     7     9     10     10     9     11     12     12     11     13     14     14     13     15     16     16     15     17     18     18     17     19     20     20     19     21     22     3     4     24     23     4     6     25     24     6     8     26     25     8     10     27     26     10     12     28     27     12     14     29     28     14     16     30     29     16     18     31     30     18     20     32     31     20     22     33     32     23     24     35     34     24     25     36     35     25     26     37     36     26     27     38     37     27     28     39     38     28     29     40     39     29     30     41     40     30     31     42     41     31     32     43     42     32     33     44     43     34     35     46     45     35     36     47     46     36     37     48     47     37     38     49     48     38     39     50     49     39     40     51     50     40     41     52     51     41     42     53     52     42     43     54     53     43     44     55     54     45     46     57     56     46     47     58     57     47     48     59     58     48     49     60     59     49     50     61     60     50     51     62     61     51     52     63     62     52     53     64     63     53     54     65     64     54     55     66     65     56     57     68     67     57     58     69     68     58     59     70     69     59     60     71     70     60     61     72     71     61     62     73     72     62     63     74     73     63     64     75     74     64     65     76     75     65     66     77     76     67     68     79     78     68     69     80     79     69     70     81     80     70     71     82     81     71     72     83     82     72     73     84     83     73     74     85     84     74     75     86     85     75     76     87     86     76     77     88     87     78     79     90     89     79     80     91     90     80     81     92     91     81     82     93     92     82     83     94     93     83     84     95     94     84     85     96     95     85     86     97     96     86     87     98     97     87     88     99     98     89     90     101     100     90     91     102     101     91     92     103     102     92     93     104     103     93     94     105     104     94     95     106     105     95     96     107     106     96     97     108     107     97     98     109     108     98     99     110     109     100     101     111     112     101     102     113     111     102     103     114     113     103     104     115     114     104     105     116     115     105     106     117     116     106     107     118     117     107     108     119     118     108     109     120     119     109     110     121     120     

