Title = " tecplot out file" 
variables = "x", "y", "z", "velX", "velY", "velZ","density","pressure","viscosity","temperature", "collisionFrequency",
Zone T = "nmesh0" N = 121 E = 100 DATAPACKING = BLOCK, VARLOCATION = ([4-11]=CELLCENTERED),  ZONETYPE=FEQUADRILATERAL 
0.0    
0.0    
0.1    
0.1    
0.0    

0.1    
0.0    
0.1    
0.0    
0.1    

0.0    
0.1    
0.0    
0.1    
0.0    

0.1    
0.0    
0.1    
0.0    
0.1    

0.0    
0.1    
0.2    
0.2    
0.2    

0.2    
0.2    
0.2    
0.2    
0.2    

0.2    
0.2    
0.2    
0.3    
0.3    

0.3    
0.3    
0.3    
0.3    
0.3    

0.3    
0.3    
0.3    
0.3    
0.4    

0.4    
0.4    
0.4    
0.4    
0.4    

0.4    
0.4    
0.4    
0.4    
0.4    

0.5    
0.5    
0.5    
0.5    
0.5    

0.5    
0.5    
0.5    
0.5    
0.5    

0.5    
0.6    
0.6    
0.6    
0.6    

0.6    
0.6    
0.6    
0.6    
0.6    

0.6    
0.6    
0.7    
0.7    
0.7    

0.7    
0.7    
0.7    
0.7    
0.7    

0.7    
0.7    
0.7    
0.8    
0.8    

0.8    
0.8    
0.8    
0.8    
0.8    

0.8    
0.8    
0.8    
0.8    
0.9    

0.9    
0.9    
0.9    
0.9    
0.9    

0.9    
0.9    
0.9    
0.9    
0.9    

1.0    
1.0    
1.0    
1.0    
1.0    

1.0    
1.0    
1.0    
1.0    
1.0    

1.0    
1.0    
0.9    
1.0    
0.9    
0.8    

0.8    
0.7    
0.7    
0.6    
0.6    

0.5    
0.5    
0.4    
0.4    
0.3    

0.3    
0.2    
0.2    
0.1    
0.1    

0.0    
0.0    
1.0    
0.9    
0.8    

0.7    
0.6    
0.5    
0.4    
0.3    

0.2    
0.1    
0.0    
1.0    
0.9    

0.8    
0.7    
0.6    
0.5    
0.4    

0.3    
0.2    
0.1    
0.0    
1.0    

0.9    
0.8    
0.7    
0.6    
0.5    

0.4    
0.3    
0.2    
0.1    
0.0    

1.0    
0.9    
0.8    
0.7    
0.6    

0.5    
0.4    
0.3    
0.2    
0.1    

0.0    
1.0    
0.9    
0.8    
0.7    

0.6    
0.5    
0.4    
0.3    
0.2    

0.1    
0.0    
1.0    
0.9    
0.8    

0.7    
0.6    
0.5    
0.4    
0.3    

0.2    
0.1    
0.0    
1.0    
0.9    

0.8    
0.7    
0.6    
0.5    
0.4    

0.3    
0.2    
0.1    
0.0    
1.0    

0.9    
0.8    
0.7    
0.6    
0.5    

0.4    
0.3    
0.2    
0.1    
0.0    

0.9    
1.0    
0.8    
0.7    
0.6    

0.5    
0.4    
0.3    
0.2    
0.1    

0.0    
0.0    0.0    0.0    0.0    0.0    
0.0    0.0    0.0    0.0    0.0    
0.0    0.0    0.0    0.0    0.0    
0.0    0.0    0.0    0.0    0.0    
0.0    0.0    0.0    0.0    0.0    
0.0    0.0    0.0    0.0    0.0    
0.0    0.0    0.0    0.0    0.0    
0.0    0.0    0.0    0.0    0.0    
0.0    0.0    0.0    0.0    0.0    
0.0    0.0    0.0    0.0    0.0    
0.0    0.0    0.0    0.0    0.0    
0.0    0.0    0.0    0.0    0.0    
0.0    0.0    0.0    0.0    0.0    
0.0    0.0    0.0    0.0    0.0    
0.0    0.0    0.0    0.0    0.0    
0.0    0.0    0.0    0.0    0.0    
0.0    0.0    0.0    0.0    0.0    
0.0    0.0    0.0    0.0    0.0    
0.0    0.0    0.0    0.0    0.0    
0.0    0.0    0.0    0.0    0.0    
0.0    0.0    0.0    0.0    0.0    
0.0    0.0    0.0    0.0    0.0    
0.0    0.0    0.0    0.0    0.0    
0.0    0.0    0.0    0.0    0.0    
0.0    
-9.00301077896e-08    -1.83422973148e-07    -1.8346053321e-07    -1.83460557749e-07    -1.83460557722e-07    
-1.83460557722e-07    -1.83460557607e-07    -1.83460533099e-07    -1.83422972872e-07    -9.00301063186e-08    
-1.19493633404e-10    -2.50949898317e-10    -2.51104624447e-10    -2.51104792101e-10    -2.5110458107e-10    
-2.51104581346e-10    -2.51104696259e-10    -2.51104700268e-10    -2.50949172701e-10    -1.19493276937e-10    
-1.58432135646e-13    -3.31773389194e-13    -3.31767190978e-13    -3.31379281152e-13    -3.31300880122e-13    
-3.31300880122e-13    -3.31301796076e-13    -3.30935313639e-13    -3.31576364964e-13    -1.56734821123e-13    
-1.15459145678e-15    -5.20732562974e-16    -4.46557246869e-16    -2.73535376028e-16    -3.90892639387e-16    
-2.55847764131e-16    -3.41757837096e-16    -5.07932148129e-17    -2.08297337614e-16    5.48058259698e-16    
-9.15172907765e-16    -2.15780067561e-16    3.72703613204e-17    3.20589301924e-17    2.25325762572e-17    
2.28051377508e-17    6.39466526622e-17    2.29342204069e-16    2.70016485067e-16    7.24868569306e-16    
-9.14737391471e-16    -2.15731520848e-16    -1.79141187259e-17    3.2191425787e-17    -5.14488213553e-18    
2.60783576595e-17    6.39689697523e-17    1.73429431928e-16    2.15214457037e-16    7.28341844207e-16    
-7.51511111702e-16    8.95753676844e-17    4.8175722486e-16    3.48961621007e-16    4.66698330717e-16    
4.70160975555e-16    5.08058681559e-16    6.59165914219e-16    6.58728533985e-16    9.85330054025e-16    
1.56412953003e-13    3.31509159375e-13    3.31253255469e-13    3.31360742428e-13    3.3145352834e-13    
3.31451720617e-13    3.31574142436e-13    3.32072826401e-13    3.31373066926e-13    1.57837678981e-13    
1.19492948605e-10    2.50948979093e-10    2.51104527887e-10    2.51104867457e-10    2.51104685573e-10    
2.51104742924e-10    2.51104666122e-10    2.51104833947e-10    2.50950000065e-10    1.19493623232e-10    
9.0030110634e-08    1.83422978855e-07    1.83460538912e-07    1.83460562771e-07    1.83460562773e-07    
1.83460562723e-07    1.83460562787e-07    1.83460538694e-07    1.83422979154e-07    9.00301114793e-08    

8.91819177381e-08    1.19336839026e-10    1.57597892971e-13    4.21321533012e-16    2.43244710081e-16    
2.43244710081e-16    6.72033176854e-17    -1.57011681075e-13    -1.19335870931e-10    -8.91819171844e-08    
1.83422975784e-07    2.50949607667e-10    3.31211269237e-13    1.92907440941e-16    -2.12965326965e-16    
-7.46109303995e-17    -4.94833763395e-16    -3.31921859064e-13    -2.50949024855e-10    -1.8342297441e-07    
1.83460536628e-07    2.51104594122e-10    3.31797507603e-13    4.75549216783e-16    4.32726385278e-17    
4.32730616278e-17    -3.15180492996e-16    -3.3114130499e-13    -2.51104666275e-10    -1.83460535782e-07    
1.83460561421e-07    2.5110485217e-10    3.31584773953e-13    3.76525040156e-16    -1.07707303434e-16    
5.33868038618e-17    -3.8115193021e-16    -3.31255696548e-13    -2.5110481814e-10    -1.83460560558e-07    
1.83460561315e-07    2.51104795019e-10    3.31735778138e-13    4.570958132e-16    2.27139746839e-17    
2.2964543646e-17    -4.14979765408e-16    -3.31254746307e-13    -2.51104733122e-10    -1.83460560386e-07    
1.83460561318e-07    2.51104794972e-10    3.31583125618e-13    3.19175067686e-16    -6.57219601875e-17    
2.27480241412e-17    -4.14980678767e-16    -3.31352111066e-13    -2.51104815939e-10    -1.8346056047e-07    
1.83460561289e-07    2.51104795391e-10    3.31749859137e-13    4.56814853712e-16    5.05036233928e-17    
5.05002231411e-17    -4.14980533183e-16    -3.31248052112e-13    -2.51104732681e-10    -1.83460560386e-07    
1.83460536942e-07    2.51104838625e-10    3.314236855e-13    1.69812099008e-16    -2.49079496305e-16    
-1.45926254221e-16    -5.68563400152e-16    -3.31568926914e-13    -2.5110482772e-10    -1.83460536122e-07    
1.83422975968e-07    2.5094929831e-10    3.31647055599e-13    6.39002518099e-16    1.8281024343e-16    
2.11628588617e-16    -2.1584390952e-16    -3.30883769593e-13    -2.50949503649e-10    -1.83422974312e-07    
8.9181918055e-08    1.19336086206e-10    1.57331116693e-13    1.32826059294e-16    -3.12341899478e-17    
-5.49077382362e-17    -2.43797825137e-16    -1.57089389531e-13    -1.19336451665e-10    -8.91819169833e-08    

1.95412803011e-17    2.73954443494e-17    2.9746902862e-17    2.66167339802e-17    7.66231892124e-18    
7.66231892124e-18    2.44639379859e-17    1.58691095649e-17    1.9122986858e-17    1.22944985947e-17    
2.96949787522e-17    2.1585671342e-17    3.68637020873e-17    2.87272351149e-17    3.03041049899e-17    
2.68032590264e-17    2.66942589771e-17    7.37366768168e-18    3.3360782558e-17    2.75322029279e-17    
2.98821238548e-17    2.04043607664e-17    3.20527527239e-17    9.22668993451e-18    7.29968917971e-18    
7.29958371333e-18    1.45097633152e-17    5.07670759006e-18    1.85675763788e-17    2.60199740505e-17    
2.65059501828e-17    1.96602522939e-17    2.29765364393e-17    4.38785162701e-17    2.86544407056e-17    
3.37102663862e-17    2.68573812593e-17    1.00656046298e-17    3.98184996854e-17    2.86794838419e-17    
3.13913167368e-17    1.19649085382e-17    3.45584048071e-17    3.64250716428e-17    3.49328906167e-17    
3.49072401871e-17    3.24450300879e-17    1.20445961374e-17    4.81322884642e-17    2.19895607911e-17    
2.97654789208e-17    1.19922387578e-17    2.01776352279e-17    3.30679101053e-17    4.32323348192e-17    
3.49411295032e-17    3.24468402657e-17    1.18064884061e-17    4.81867148878e-17    2.19895345282e-17    
3.04498686832e-17    1.6004922746e-17    3.45090540622e-17    3.68320873196e-17    3.49343424837e-17    
3.51503334932e-17    3.24468601181e-17    1.4704533519e-17    4.85640974986e-17    4.33693025619e-17    
2.0988376746e-17    1.06263136494e-17    2.94577939172e-17    1.74215740715e-17    1.94661252636e-17    
1.74233745334e-17    1.60901282842e-17    2.56428304359e-17    1.79560302041e-17    1.84322915486e-17    
3.09821549403e-17    2.48534259231e-17    1.14304594855e-17    2.88798909571e-17    4.47844397564e-17    
1.79350078582e-17    2.68276358283e-17    1.86396373002e-17    8.52482354342e-18    2.90088249452e-17    
2.36976691638e-17    3.95313382872e-17    2.90385526413e-17    3.09738684368e-17    1.64445582291e-17    
1.45989625064e-17    1.60916222114e-17    2.70728879642e-17    2.77766347106e-17    3.91320455275e-17    

0.999999601285    0.999999604323    0.999999604453    0.999999604453    0.999999604453    
0.999999604453    0.999999604453    0.999999604453    0.999999604323    0.999999601285    
0.999999604322    0.999999584689    0.999999584821    0.999999584821    0.999999584821    
0.999999584821    0.999999584821    0.999999584821    0.999999584689    0.999999604322    
0.999999604453    0.99999958482    0.999999584952    0.999999584952    0.999999584952    
0.999999584952    0.999999584952    0.999999584952    0.99999958482    0.999999604453    
0.999999604453    0.999999584821    0.999999584952    0.999999584952    0.999999584952    
0.999999584952    0.999999584952    0.999999584952    0.999999584821    0.999999604453    
0.999999604453    0.999999584821    0.999999584952    0.999999584952    0.999999584952    
0.999999584952    0.999999584952    0.999999584952    0.999999584821    0.999999604453    
0.999999604453    0.999999584821    0.999999584952    0.999999584952    0.999999584952    
0.999999584952    0.999999584952    0.999999584952    0.999999584821    0.999999604453    
0.999999604453    0.999999584821    0.999999584952    0.999999584952    0.999999584952    
0.999999584952    0.999999584952    0.999999584952    0.999999584821    0.999999604453    
0.999999604453    0.99999958482    0.999999584952    0.999999584952    0.999999584952    
0.999999584952    0.999999584952    0.999999584952    0.99999958482    0.999999604453    
0.999999604322    0.999999584689    0.99999958482    0.999999584821    0.999999584821    
0.999999584821    0.999999584821    0.99999958482    0.999999584689    0.999999604322    
0.999999601285    0.999999604323    0.999999604453    0.999999604453    0.999999604453    
0.999999604453    0.999999604453    0.999999604453    0.999999604323    0.999999601285    

1.00000614987    1.00000650839    1.00000650873    1.00000650873    1.00000650873    
1.00000650873    1.00000650873    1.00000650873    1.00000650839    1.00000614987    
1.00000650839    1.00000724091    1.00000724148    1.00000724148    1.00000724148    
1.00000724148    1.00000724148    1.00000724148    1.00000724091    1.00000650839    
1.00000650873    1.00000724148    1.00000724205    1.00000724205    1.00000724205    
1.00000724205    1.00000724205    1.00000724205    1.00000724148    1.00000650873    
1.00000650873    1.00000724148    1.00000724205    1.00000724205    1.00000724205    
1.00000724205    1.00000724205    1.00000724205    1.00000724148    1.00000650873    
1.00000650873    1.00000724148    1.00000724205    1.00000724205    1.00000724205    
1.00000724205    1.00000724205    1.00000724205    1.00000724148    1.00000650873    
1.00000650873    1.00000724148    1.00000724205    1.00000724205    1.00000724205    
1.00000724205    1.00000724205    1.00000724205    1.00000724148    1.00000650873    
1.00000650873    1.00000724148    1.00000724205    1.00000724205    1.00000724205    
1.00000724205    1.00000724205    1.00000724205    1.00000724148    1.00000650873    
1.00000650873    1.00000724148    1.00000724205    1.00000724205    1.00000724205    
1.00000724205    1.00000724205    1.00000724205    1.00000724148    1.00000650873    
1.00000650839    1.00000724091    1.00000724148    1.00000724148    1.00000724148    
1.00000724148    1.00000724148    1.00000724148    1.00000724091    1.00000650839    
1.00000614987    1.00000650839    1.00000650873    1.00000650873    1.00000650873    
1.00000650873    1.00000650873    1.00000650873    1.00000650839    1.00000614987    

2.25028842223e-07    2.25028907018e-07    2.25028907056e-07    2.25028907056e-07    2.25028907056e-07    
2.25028907056e-07    2.25028907056e-07    2.25028907056e-07    2.25028907018e-07    2.25028842223e-07    
2.25028907018e-07    2.25029044114e-07    2.25029044194e-07    2.25029044194e-07    2.25029044194e-07    
2.25029044194e-07    2.25029044194e-07    2.25029044194e-07    2.25029044114e-07    2.25028907018e-07    
2.25028907056e-07    2.25029044194e-07    2.25029044274e-07    2.25029044274e-07    2.25029044274e-07    
2.25029044274e-07    2.25029044274e-07    2.25029044274e-07    2.25029044194e-07    2.25028907056e-07    
2.25028907056e-07    2.25029044194e-07    2.25029044274e-07    2.25029044274e-07    2.25029044274e-07    
2.25029044274e-07    2.25029044274e-07    2.25029044274e-07    2.25029044194e-07    2.25028907056e-07    
2.25028907056e-07    2.25029044194e-07    2.25029044274e-07    2.25029044274e-07    2.25029044274e-07    
2.25029044274e-07    2.25029044274e-07    2.25029044274e-07    2.25029044194e-07    2.25028907056e-07    
2.25028907056e-07    2.25029044194e-07    2.25029044274e-07    2.25029044274e-07    2.25029044274e-07    
2.25029044274e-07    2.25029044274e-07    2.25029044274e-07    2.25029044194e-07    2.25028907056e-07    
2.25028907056e-07    2.25029044194e-07    2.25029044274e-07    2.25029044274e-07    2.25029044274e-07    
2.25029044274e-07    2.25029044274e-07    2.25029044274e-07    2.25029044194e-07    2.25028907056e-07    
2.25028907056e-07    2.25029044194e-07    2.25029044274e-07    2.25029044274e-07    2.25029044274e-07    
2.25029044274e-07    2.25029044274e-07    2.25029044274e-07    2.25029044194e-07    2.25028907056e-07    
2.25028907018e-07    2.25029044114e-07    2.25029044194e-07    2.25029044194e-07    2.25029044194e-07    
2.25029044194e-07    2.25029044194e-07    2.25029044194e-07    2.25029044114e-07    2.25028907018e-07    
2.25028842223e-07    2.25028907018e-07    2.25028907056e-07    2.25028907056e-07    2.25028907056e-07    
2.25028907056e-07    2.25028907056e-07    2.25028907056e-07    2.25028907018e-07    2.25028842223e-07    

1.00000654859    1.00000690407    1.00000690428    1.00000690428    1.00000690428    
1.00000690428    1.00000690428    1.00000690428    1.00000690407    1.00000654859    
1.00000690407    1.00000765623    1.00000765666    1.00000765666    1.00000765666    
1.00000765666    1.00000765666    1.00000765666    1.00000765623    1.00000690407    
1.00000690428    1.00000765666    1.0000076571    1.0000076571    1.0000076571    
1.0000076571    1.0000076571    1.0000076571    1.00000765666    1.00000690428    
1.00000690428    1.00000765666    1.0000076571    1.0000076571    1.0000076571    
1.0000076571    1.0000076571    1.0000076571    1.00000765666    1.00000690428    
1.00000690428    1.00000765666    1.0000076571    1.0000076571    1.0000076571    
1.0000076571    1.0000076571    1.0000076571    1.00000765666    1.00000690428    
1.00000690428    1.00000765666    1.0000076571    1.0000076571    1.0000076571    
1.0000076571    1.0000076571    1.0000076571    1.00000765666    1.00000690428    
1.00000690428    1.00000765666    1.0000076571    1.0000076571    1.0000076571    
1.0000076571    1.0000076571    1.0000076571    1.00000765666    1.00000690428    
1.00000690428    1.00000765666    1.0000076571    1.0000076571    1.0000076571    
1.0000076571    1.0000076571    1.0000076571    1.00000765666    1.00000690428    
1.00000690407    1.00000765623    1.00000765666    1.00000765666    1.00000765666    
1.00000765666    1.00000765666    1.00000765666    1.00000765623    1.00000690407    
1.00000654859    1.00000690407    1.00000690428    1.00000690428    1.00000690428    
1.00000690428    1.00000690428    1.00000690428    1.00000690407    1.00000654859    

1239.53499375    1239.53508124    1239.53508145    1239.53508145    1239.53508145    
1239.53508145    1239.53508145    1239.53508145    1239.53508124    1239.53499375    
1239.53508124    1239.53523404    1239.53523431    1239.53523431    1239.53523431    
1239.53523431    1239.53523431    1239.53523431    1239.53523404    1239.53508124    
1239.53508145    1239.53523431    1239.53523457    1239.53523457    1239.53523457    
1239.53523457    1239.53523457    1239.53523457    1239.53523431    1239.53508145    
1239.53508145    1239.53523431    1239.53523457    1239.53523457    1239.53523457    
1239.53523457    1239.53523457    1239.53523457    1239.53523431    1239.53508145    
1239.53508145    1239.53523431    1239.53523457    1239.53523457    1239.53523457    
1239.53523457    1239.53523457    1239.53523457    1239.53523431    1239.53508145    
1239.53508145    1239.53523431    1239.53523457    1239.53523457    1239.53523457    
1239.53523457    1239.53523457    1239.53523457    1239.53523431    1239.53508145    
1239.53508145    1239.53523431    1239.53523457    1239.53523457    1239.53523457    
1239.53523457    1239.53523457    1239.53523457    1239.53523431    1239.53508145    
1239.53508145    1239.53523431    1239.53523457    1239.53523457    1239.53523457    
1239.53523457    1239.53523457    1239.53523457    1239.53523431    1239.53508145    
1239.53508124    1239.53523404    1239.53523431    1239.53523431    1239.53523431    
1239.53523431    1239.53523431    1239.53523431    1239.53523404    1239.53508124    
1239.53499375    1239.53508124    1239.53508145    1239.53508145    1239.53508145    
1239.53508145    1239.53508145    1239.53508145    1239.53508124    1239.53499375    

2     4     3     1     4     2     5     6     6     5     7     8     8     7     9     10     10     9     11     12     12     11     13     14     14     13     15     16     16     15     17     18     18     17     19     20     20     19     21     22     3     4     24     23     4     6     25     24     6     8     26     25     8     10     27     26     10     12     28     27     12     14     29     28     14     16     30     29     16     18     31     30     18     20     32     31     20     22     33     32     23     24     35     34     24     25     36     35     25     26     37     36     26     27     38     37     27     28     39     38     28     29     40     39     29     30     41     40     30     31     42     41     31     32     43     42     32     33     44     43     34     35     46     45     35     36     47     46     36     37     48     47     37     38     49     48     38     39     50     49     39     40     51     50     40     41     52     51     41     42     53     52     42     43     54     53     43     44     55     54     45     46     57     56     46     47     58     57     47     48     59     58     48     49     60     59     49     50     61     60     50     51     62     61     51     52     63     62     52     53     64     63     53     54     65     64     54     55     66     65     56     57     68     67     57     58     69     68     58     59     70     69     59     60     71     70     60     61     72     71     61     62     73     72     62     63     74     73     63     64     75     74     64     65     76     75     65     66     77     76     67     68     79     78     68     69     80     79     69     70     81     80     70     71     82     81     71     72     83     82     72     73     84     83     73     74     85     84     74     75     86     85     75     76     87     86     76     77     88     87     78     79     90     89     79     80     91     90     80     81     92     91     81     82     93     92     82     83     94     93     83     84     95     94     84     85     96     95     85     86     97     96     86     87     98     97     87     88     99     98     89     90     101     100     90     91     102     101     91     92     103     102     92     93     104     103     93     94     105     104     94     95     106     105     95     96     107     106     96     97     108     107     97     98     109     108     98     99     110     109     100     101     111     112     101     102     113     111     102     103     114     113     103     104     115     114     104     105     116     115     105     106     117     116     106     107     118     117     107     108     119     118     108     109     120     119     109     110     121     120     

