Title = " tecplot out file" 
variables = "x", "y", "z", "velX", "velY", "velZ","density","pressure","viscosity","temperature", "collisionFrequency",
Zone T = "nmesh0" N = 121 E = 100 DATAPACKING = BLOCK, VARLOCATION = ([4-11]=CELLCENTERED),  ZONETYPE=FEQUADRILATERAL 
0.0    
0.0    
0.1    
0.1    
0.0    

0.1    
0.0    
0.1    
0.0    
0.1    

0.0    
0.1    
0.0    
0.1    
0.0    

0.1    
0.0    
0.1    
0.0    
0.1    

0.0    
0.1    
0.2    
0.2    
0.2    

0.2    
0.2    
0.2    
0.2    
0.2    

0.2    
0.2    
0.2    
0.3    
0.3    

0.3    
0.3    
0.3    
0.3    
0.3    

0.3    
0.3    
0.3    
0.3    
0.4    

0.4    
0.4    
0.4    
0.4    
0.4    

0.4    
0.4    
0.4    
0.4    
0.4    

0.5    
0.5    
0.5    
0.5    
0.5    

0.5    
0.5    
0.5    
0.5    
0.5    

0.5    
0.6    
0.6    
0.6    
0.6    

0.6    
0.6    
0.6    
0.6    
0.6    

0.6    
0.6    
0.7    
0.7    
0.7    

0.7    
0.7    
0.7    
0.7    
0.7    

0.7    
0.7    
0.7    
0.8    
0.8    

0.8    
0.8    
0.8    
0.8    
0.8    

0.8    
0.8    
0.8    
0.8    
0.9    

0.9    
0.9    
0.9    
0.9    
0.9    

0.9    
0.9    
0.9    
0.9    
0.9    

1.0    
1.0    
1.0    
1.0    
1.0    

1.0    
1.0    
1.0    
1.0    
1.0    

1.0    
1.0    
0.9    
1.0    
0.9    
0.8    

0.8    
0.7    
0.7    
0.6    
0.6    

0.5    
0.5    
0.4    
0.4    
0.3    

0.3    
0.2    
0.2    
0.1    
0.1    

0.0    
0.0    
1.0    
0.9    
0.8    

0.7    
0.6    
0.5    
0.4    
0.3    

0.2    
0.1    
0.0    
1.0    
0.9    

0.8    
0.7    
0.6    
0.5    
0.4    

0.3    
0.2    
0.1    
0.0    
1.0    

0.9    
0.8    
0.7    
0.6    
0.5    

0.4    
0.3    
0.2    
0.1    
0.0    

1.0    
0.9    
0.8    
0.7    
0.6    

0.5    
0.4    
0.3    
0.2    
0.1    

0.0    
1.0    
0.9    
0.8    
0.7    

0.6    
0.5    
0.4    
0.3    
0.2    

0.1    
0.0    
1.0    
0.9    
0.8    

0.7    
0.6    
0.5    
0.4    
0.3    

0.2    
0.1    
0.0    
1.0    
0.9    

0.8    
0.7    
0.6    
0.5    
0.4    

0.3    
0.2    
0.1    
0.0    
1.0    

0.9    
0.8    
0.7    
0.6    
0.5    

0.4    
0.3    
0.2    
0.1    
0.0    

0.9    
1.0    
0.8    
0.7    
0.6    

0.5    
0.4    
0.3    
0.2    
0.1    

0.0    
0.0    0.0    0.0    0.0    0.0    
0.0    0.0    0.0    0.0    0.0    
0.0    0.0    0.0    0.0    0.0    
0.0    0.0    0.0    0.0    0.0    
0.0    0.0    0.0    0.0    0.0    
0.0    0.0    0.0    0.0    0.0    
0.0    0.0    0.0    0.0    0.0    
0.0    0.0    0.0    0.0    0.0    
0.0    0.0    0.0    0.0    0.0    
0.0    0.0    0.0    0.0    0.0    
0.0    0.0    0.0    0.0    0.0    
0.0    0.0    0.0    0.0    0.0    
0.0    0.0    0.0    0.0    0.0    
0.0    0.0    0.0    0.0    0.0    
0.0    0.0    0.0    0.0    0.0    
0.0    0.0    0.0    0.0    0.0    
0.0    0.0    0.0    0.0    0.0    
0.0    0.0    0.0    0.0    0.0    
0.0    0.0    0.0    0.0    0.0    
0.0    0.0    0.0    0.0    0.0    
0.0    0.0    0.0    0.0    0.0    
0.0    0.0    0.0    0.0    0.0    
0.0    0.0    0.0    0.0    0.0    
0.0    0.0    0.0    0.0    0.0    
0.0    
-1.10456597693e-07    -2.26872977639e-07    -2.2693495964e-07    -2.26935008265e-07    -2.26935008372e-07    
-2.26935008372e-07    -2.2693500831e-07    -2.26934959914e-07    -2.26872977326e-07    -1.1045659567e-07    
-1.95391571937e-10    -4.1682667907e-10    -4.17130970733e-10    -4.17131639627e-10    -4.17131600762e-10    
-4.17131601619e-10    -4.17131536007e-10    -4.17131530796e-10    -4.16826077953e-10    -1.95390562782e-10    
-3.07831832013e-13    -6.58420426447e-13    -6.58745539533e-13    -6.59095766866e-13    -6.59110116354e-13    
-6.59110116367e-13    -6.58772515642e-13    -6.58220879864e-13    -6.59031514503e-13    -3.07657286633e-13    
-4.54970875881e-16    -1.03294747083e-15    -1.45978346008e-15    -9.77465467759e-16    -1.19506978563e-15    
-8.84189613534e-16    -1.1643321061e-15    3.44306078385e-16    -6.60861239379e-16    -8.02431611028e-16    
3.83103299206e-17    -3.52163424025e-16    -4.6576018928e-16    1.3407517366e-18    -5.64058153155e-17    
-5.5888908579e-17    -1.34807016831e-16    9.93370441647e-16    3.38402829803e-16    -2.6915029014e-16    
3.93692601005e-17    -3.51980603416e-16    -4.63564325115e-16    -1.06670569261e-16    -1.92955217398e-16    
-5.44096929576e-17    -1.3460159091e-16    9.95398396926e-16    2.87076119056e-16    -3.21078466675e-16    
5.01853088375e-16    5.91450135758e-16    5.33305250438e-16    1.0069277831e-15    9.37554583657e-16    
9.37659565873e-16    8.36842837038e-16    1.98551564486e-15    1.22660635218e-15    1.47301746914e-16    
3.07507084347e-13    6.58863458981e-13    6.58406509814e-13    6.5850795585e-13    6.58757755183e-13    
6.58784482545e-13    6.58874266192e-13    6.58989040666e-13    6.57989155689e-13    3.06822659828e-13    
1.95389992834e-10    4.16826015082e-10    4.17131552353e-10    4.17131866971e-10    4.17131604516e-10    
4.17131816884e-10    4.1713162283e-10    4.17131430966e-10    4.16826903408e-10    1.95391247252e-10    
1.10456599751e-07    2.26872984571e-07    2.26934966839e-07    2.26935015243e-07    2.26935015311e-07    
2.26935015228e-07    2.26935015295e-07    2.26934966695e-07    2.26872983928e-07    1.10456600887e-07    

1.09315929974e-07    1.95072886076e-10    3.07673465319e-13    8.17405243298e-16    3.80077618227e-16    
3.80077618227e-16    -7.49383228522e-17    -3.06819444394e-13    -1.95071310031e-10    -1.09315927997e-07    
2.26872979382e-07    4.1682698604e-10    6.5801107739e-13    5.58596992093e-16    -3.67162509079e-16    
-1.66503105007e-16    -1.1194634456e-15    -6.59046841117e-13    -4.16826038466e-10    -2.2687297837e-07    
2.26934964416e-07    4.17131152862e-10    6.59062232905e-13    1.06512559268e-15    1.43068630296e-16    
1.36131001842e-16    -8.21904587609e-16    -6.58044684046e-13    -4.17131267038e-10    -2.26934962971e-07    
2.26935012752e-07    4.17131570513e-10    6.58728973104e-13    8.35102250184e-16    -1.76003417074e-16    
1.30414789683e-16    -9.12499143824e-16    -6.582350781e-13    -4.17131520763e-10    -2.26935011656e-07    
2.26935012812e-07    4.17131485597e-10    6.59008173438e-13    1.00112135533e-15    4.88428083098e-17    
4.89706944957e-17    -9.2056590681e-16    -6.58282520102e-13    -4.17131343465e-10    -2.26935011479e-07    
2.26935012812e-07    4.17131485509e-10    6.58744121811e-13    7.7410663787e-16    -1.67336924425e-16    
4.97202437368e-17    -9.4832615917e-16    -6.58394131733e-13    -4.17131519718e-10    -2.26935011646e-07    
2.26935012752e-07    4.17131485084e-10    6.59007918261e-13    9.67783773786e-16    3.90452472248e-17    
3.90435365226e-17    -9.21465424238e-16    -6.58249100089e-13    -4.17131346507e-10    -2.26935011511e-07    
2.26934964202e-07    4.17131503132e-10    6.5844557626e-13    4.66401271911e-16    -4.98959495032e-16    
-3.14218852505e-16    -1.26061731587e-15    -6.58728707497e-13    -4.17131535659e-10    -2.26934963161e-07    
2.26872979841e-07    4.16826451227e-10    6.58726411841e-13    1.33159541937e-15    2.94517792841e-16    
3.98213102337e-16    -6.35174672297e-16    -6.57433795772e-13    -4.16826850277e-10    -2.26872978293e-07    
1.09315928536e-07    1.95071698071e-10    3.07312486166e-13    3.68675151251e-16    -2.72212547281e-17    
-6.09898773207e-17    -4.84652278128e-16    -3.0692650462e-13    -1.95072300729e-10    -1.09315928137e-07    

3.53373101491e-17    1.53144973711e-17    3.02792522829e-17    1.95576650439e-17    8.71722247471e-18    
8.71722247471e-18    1.27585661775e-17    7.93495654348e-18    1.21745954794e-17    3.07156401207e-17    
4.56044930831e-17    1.05261165289e-17    2.33144237927e-17    3.23574450952e-17    3.23062937129e-17    
3.21415631957e-17    3.11509861236e-17    1.98402235644e-17    1.12941259693e-17    2.64428884378e-17    
3.11268898078e-17    3.4582092055e-17    3.55785605699e-17    2.82372694386e-17    2.84940054507e-17    
2.8493952926e-17    3.24537664304e-17    2.03136158991e-17    1.62822284107e-17    4.16003586177e-17    
3.37398626649e-17    1.84375362748e-17    4.21632402868e-17    4.25980341216e-17    2.54776996038e-17    
2.79340074669e-17    3.01452282068e-17    2.21495603071e-17    3.80358890903e-17    2.37083322397e-17    
3.93112498267e-17    3.28966031806e-17    4.68834276149e-17    3.2062900474e-17    2.74837490858e-17    
2.77076214413e-17    3.17370469765e-17    3.81482016449e-17    3.20398869855e-17    1.62632242594e-17    
3.75538725644e-17    3.28372942735e-17    4.27232752289e-17    3.03307911302e-17    2.61095622968e-17    
3.46472129896e-17    3.17407013788e-17    2.50047342358e-17    3.18834411569e-17    1.62632242594e-17    
2.9328016108e-17    1.53355467169e-17    4.30050509258e-17    2.21676705705e-17    3.07364449939e-17    
3.0515415556e-17    3.169150381e-17    2.61678350565e-17    3.87525405829e-17    1.67728240924e-17    
1.99449140844e-17    -7.92137571841e-19    2.87218997672e-17    3.45076976261e-17    3.25953913587e-17    
4.76353014363e-17    4.57511521776e-17    9.39427779529e-18    -2.07766637121e-18    2.59813697217e-17    
3.38339922862e-17    1.85815445562e-17    2.02612201727e-17    2.47709598059e-17    2.8358497049e-17    
2.85932258949e-17    2.88439851184e-17    3.25392343563e-17    3.41214304364e-17    4.50221766262e-17    
1.77932053578e-17    3.0998715087e-17    2.44208572692e-17    1.79822000737e-17    1.39045732718e-17    
2.11626146834e-17    2.79316350025e-17    3.4695048573e-17    1.29196006984e-17    2.20050014095e-17    

0.999999652953    0.999999657324    0.999999657542    0.999999657542    0.999999657542    
0.999999657542    0.999999657542    0.999999657542    0.999999657324    0.999999652953    
0.999999657324    0.99999962483    0.999999625047    0.999999625048    0.999999625048    
0.999999625048    0.999999625048    0.999999625047    0.99999962483    0.999999657324    
0.999999657542    0.999999625047    0.999999625265    0.999999625265    0.999999625265    
0.999999625265    0.999999625265    0.999999625265    0.999999625047    0.999999657542    
0.999999657542    0.999999625048    0.999999625265    0.999999625266    0.999999625266    
0.999999625266    0.999999625266    0.999999625265    0.999999625048    0.999999657542    
0.999999657542    0.999999625048    0.999999625265    0.999999625266    0.999999625266    
0.999999625266    0.999999625266    0.999999625265    0.999999625048    0.999999657542    
0.999999657542    0.999999625048    0.999999625265    0.999999625266    0.999999625266    
0.999999625266    0.999999625266    0.999999625265    0.999999625048    0.999999657542    
0.999999657542    0.999999625048    0.999999625265    0.999999625266    0.999999625266    
0.999999625266    0.999999625266    0.999999625265    0.999999625048    0.999999657542    
0.999999657542    0.999999625047    0.999999625265    0.999999625265    0.999999625265    
0.999999625265    0.999999625265    0.999999625265    0.999999625047    0.999999657542    
0.999999657324    0.99999962483    0.999999625047    0.999999625048    0.999999625048    
0.999999625048    0.999999625048    0.999999625047    0.99999962483    0.999999657324    
0.999999652953    0.999999657324    0.999999657542    0.999999657542    0.999999657542    
0.999999657542    0.999999657542    0.999999657542    0.999999657324    0.999999652953    

1.00000627812    1.00000672396    1.00000672452    1.00000672452    1.00000672452    
1.00000672452    1.00000672452    1.00000672452    1.00000672396    1.00000627812    
1.00000672396    1.00000764273    1.00000764368    1.00000764368    1.00000764368    
1.00000764368    1.00000764368    1.00000764368    1.00000764273    1.00000672396    
1.00000672452    1.00000764368    1.00000764462    1.00000764462    1.00000764462    
1.00000764462    1.00000764462    1.00000764462    1.00000764368    1.00000672452    
1.00000672452    1.00000764368    1.00000764462    1.00000764463    1.00000764463    
1.00000764463    1.00000764463    1.00000764462    1.00000764368    1.00000672452    
1.00000672452    1.00000764368    1.00000764462    1.00000764463    1.00000764463    
1.00000764463    1.00000764463    1.00000764462    1.00000764368    1.00000672452    
1.00000672452    1.00000764368    1.00000764462    1.00000764463    1.00000764463    
1.00000764463    1.00000764463    1.00000764462    1.00000764368    1.00000672452    
1.00000672452    1.00000764368    1.00000764462    1.00000764463    1.00000764463    
1.00000764463    1.00000764463    1.00000764462    1.00000764368    1.00000672452    
1.00000672452    1.00000764368    1.00000764462    1.00000764462    1.00000764462    
1.00000764462    1.00000764462    1.00000764462    1.00000764368    1.00000672452    
1.00000672396    1.00000764273    1.00000764368    1.00000764368    1.00000764368    
1.00000764368    1.00000764368    1.00000764368    1.00000764273    1.00000672396    
1.00000627812    1.00000672396    1.00000672452    1.00000672452    1.00000672452    
1.00000672452    1.00000672452    1.00000672452    1.00000672396    1.00000627812    

2.25028856181e-07    2.25028936649e-07    2.25028936711e-07    2.25028936711e-07    2.25028936711e-07    
2.25028936711e-07    2.25028936711e-07    2.25028936711e-07    2.25028936649e-07    2.25028856181e-07    
2.25028936649e-07    2.25029110038e-07    2.25029110171e-07    2.25029110171e-07    2.25029110171e-07    
2.25029110171e-07    2.25029110171e-07    2.25029110171e-07    2.25029110038e-07    2.25028936649e-07    
2.25028936711e-07    2.25029110171e-07    2.25029110304e-07    2.25029110304e-07    2.25029110304e-07    
2.25029110304e-07    2.25029110304e-07    2.25029110304e-07    2.25029110171e-07    2.25028936711e-07    
2.25028936711e-07    2.25029110171e-07    2.25029110304e-07    2.25029110304e-07    2.25029110304e-07    
2.25029110304e-07    2.25029110304e-07    2.25029110304e-07    2.25029110171e-07    2.25028936711e-07    
2.25028936711e-07    2.25029110171e-07    2.25029110304e-07    2.25029110304e-07    2.25029110304e-07    
2.25029110304e-07    2.25029110304e-07    2.25029110304e-07    2.25029110171e-07    2.25028936711e-07    
2.25028936711e-07    2.25029110171e-07    2.25029110304e-07    2.25029110304e-07    2.25029110304e-07    
2.25029110304e-07    2.25029110304e-07    2.25029110304e-07    2.25029110171e-07    2.25028936711e-07    
2.25028936711e-07    2.25029110171e-07    2.25029110304e-07    2.25029110304e-07    2.25029110304e-07    
2.25029110304e-07    2.25029110304e-07    2.25029110304e-07    2.25029110171e-07    2.25028936711e-07    
2.25028936711e-07    2.25029110171e-07    2.25029110304e-07    2.25029110304e-07    2.25029110304e-07    
2.25029110304e-07    2.25029110304e-07    2.25029110304e-07    2.25029110171e-07    2.25028936711e-07    
2.25028936649e-07    2.25029110038e-07    2.25029110171e-07    2.25029110171e-07    2.25029110171e-07    
2.25029110171e-07    2.25029110171e-07    2.25029110171e-07    2.25029110038e-07    2.25028936649e-07    
2.25028856181e-07    2.25028936649e-07    2.25028936711e-07    2.25028936711e-07    2.25028936711e-07    
2.25028936711e-07    2.25028936711e-07    2.25028936711e-07    2.25028936649e-07    2.25028856181e-07    

1.00000662517    1.00000706664    1.00000706698    1.00000706698    1.00000706698    
1.00000706698    1.00000706698    1.00000706698    1.00000706664    1.00000662517    
1.00000706664    1.0000080179    1.00000801863    1.00000801863    1.00000801863    
1.00000801863    1.00000801863    1.00000801863    1.0000080179    1.00000706664    
1.00000706698    1.00000801863    1.00000801936    1.00000801936    1.00000801936    
1.00000801936    1.00000801936    1.00000801936    1.00000801863    1.00000706698    
1.00000706698    1.00000801863    1.00000801936    1.00000801936    1.00000801936    
1.00000801936    1.00000801936    1.00000801936    1.00000801863    1.00000706698    
1.00000706698    1.00000801863    1.00000801936    1.00000801936    1.00000801936    
1.00000801936    1.00000801936    1.00000801936    1.00000801863    1.00000706698    
1.00000706698    1.00000801863    1.00000801936    1.00000801936    1.00000801936    
1.00000801936    1.00000801936    1.00000801936    1.00000801863    1.00000706698    
1.00000706698    1.00000801863    1.00000801936    1.00000801936    1.00000801936    
1.00000801936    1.00000801936    1.00000801936    1.00000801863    1.00000706698    
1.00000706698    1.00000801863    1.00000801936    1.00000801936    1.00000801936    
1.00000801936    1.00000801936    1.00000801936    1.00000801863    1.00000706698    
1.00000706664    1.0000080179    1.00000801863    1.00000801863    1.00000801863    
1.00000801863    1.00000801863    1.00000801863    1.0000080179    1.00000706664    
1.00000662517    1.00000706664    1.00000706698    1.00000706698    1.00000706698    
1.00000706698    1.00000706698    1.00000706698    1.00000706664    1.00000662517    

1239.53507583    1239.53518522    1239.53518557    1239.53518557    1239.53518557    
1239.53518557    1239.53518557    1239.53518557    1239.53518522    1239.53507583    
1239.53518522    1239.53536897    1239.53536942    1239.53536942    1239.53536942    
1239.53536942    1239.53536942    1239.53536942    1239.53536897    1239.53518522    
1239.53518557    1239.53536942    1239.53536986    1239.53536986    1239.53536986    
1239.53536986    1239.53536986    1239.53536986    1239.53536942    1239.53518557    
1239.53518557    1239.53536942    1239.53536986    1239.53536986    1239.53536986    
1239.53536986    1239.53536986    1239.53536986    1239.53536942    1239.53518557    
1239.53518557    1239.53536942    1239.53536986    1239.53536986    1239.53536986    
1239.53536986    1239.53536986    1239.53536986    1239.53536942    1239.53518557    
1239.53518557    1239.53536942    1239.53536986    1239.53536986    1239.53536986    
1239.53536986    1239.53536986    1239.53536986    1239.53536942    1239.53518557    
1239.53518557    1239.53536942    1239.53536986    1239.53536986    1239.53536986    
1239.53536986    1239.53536986    1239.53536986    1239.53536942    1239.53518557    
1239.53518557    1239.53536942    1239.53536986    1239.53536986    1239.53536986    
1239.53536986    1239.53536986    1239.53536986    1239.53536942    1239.53518557    
1239.53518522    1239.53536897    1239.53536942    1239.53536942    1239.53536942    
1239.53536942    1239.53536942    1239.53536942    1239.53536897    1239.53518522    
1239.53507583    1239.53518522    1239.53518557    1239.53518557    1239.53518557    
1239.53518557    1239.53518557    1239.53518557    1239.53518522    1239.53507583    

2     4     3     1     4     2     5     6     6     5     7     8     8     7     9     10     10     9     11     12     12     11     13     14     14     13     15     16     16     15     17     18     18     17     19     20     20     19     21     22     3     4     24     23     4     6     25     24     6     8     26     25     8     10     27     26     10     12     28     27     12     14     29     28     14     16     30     29     16     18     31     30     18     20     32     31     20     22     33     32     23     24     35     34     24     25     36     35     25     26     37     36     26     27     38     37     27     28     39     38     28     29     40     39     29     30     41     40     30     31     42     41     31     32     43     42     32     33     44     43     34     35     46     45     35     36     47     46     36     37     48     47     37     38     49     48     38     39     50     49     39     40     51     50     40     41     52     51     41     42     53     52     42     43     54     53     43     44     55     54     45     46     57     56     46     47     58     57     47     48     59     58     48     49     60     59     49     50     61     60     50     51     62     61     51     52     63     62     52     53     64     63     53     54     65     64     54     55     66     65     56     57     68     67     57     58     69     68     58     59     70     69     59     60     71     70     60     61     72     71     61     62     73     72     62     63     74     73     63     64     75     74     64     65     76     75     65     66     77     76     67     68     79     78     68     69     80     79     69     70     81     80     70     71     82     81     71     72     83     82     72     73     84     83     73     74     85     84     74     75     86     85     75     76     87     86     76     77     88     87     78     79     90     89     79     80     91     90     80     81     92     91     81     82     93     92     82     83     94     93     83     84     95     94     84     85     96     95     85     86     97     96     86     87     98     97     87     88     99     98     89     90     101     100     90     91     102     101     91     92     103     102     92     93     104     103     93     94     105     104     94     95     106     105     95     96     107     106     96     97     108     107     97     98     109     108     98     99     110     109     100     101     111     112     101     102     113     111     102     103     114     113     103     104     115     114     104     105     116     115     105     106     117     116     106     107     118     117     107     108     119     118     108     109     120     119     109     110     121     120     

