title = " tecplot file for process Mesh " 
variables = "x",  "y", "z", "cell_type" 
zone N = 163 E = 738 DATAPACKING = BLOCK,  VARLOCATION = ([4]=CELLCENTERED), ZONETYPE=FETETRAHEDRON 
5.000000e-01     
5.000000e-01     3.995672e-01     5.000000e-01     2.000000e-01     2.389279e-01     
2.315374e-01     3.000000e-01     5.000000e-01     4.115682e-01     5.000000e-01     
5.162404e-02     1.000000e-01     4.814886e-02     0.000000e+00     1.320931e-01     
1.373692e-01     4.157808e-01     5.000000e-01     5.000000e-01     5.000000e-01     
5.000000e-01     4.127664e-01     5.000000e-01     5.000000e-01     4.167259e-01     
5.000000e-01     5.000000e-01     4.125669e-01     4.291383e-01     5.000000e-01     
5.000000e-01     4.283602e-01     4.000000e-01     -3.299005e-02     5.000000e-01     
4.116530e-01     5.000000e-01     4.216898e-01     5.000000e-01     4.152798e-01     
5.000000e-01     5.000000e-01     5.000000e-01     5.000000e-01     4.057430e-01     
5.000000e-01     3.261820e-01     4.156964e-01     5.000000e-01     5.000000e-01     
4.180293e-01     3.274481e-01     4.106547e-01     5.000000e-01     3.238392e-01     
4.157596e-01     4.041428e-01     5.000000e-01     5.350412e-02     2.404603e-02     
4.542300e-02     2.841273e-01     3.373877e-01     3.284685e-01     1.532372e-01     
1.102617e-01     1.069165e-01     2.284486e-01     2.930988e-01     3.223794e-01     
2.343925e-01     -6.448521e-02     1.615903e-01     1.835402e-01     1.743233e-01     
2.947400e-01     1.126964e-01     2.398885e-01     2.403081e-01     2.149701e-01     
2.551958e-01     3.057762e-01     3.359509e-01     2.198374e-01     2.122078e-01     
1.017773e-01     2.611884e-01     4.162771e-01     5.000000e-01     4.222639e-01     
4.162213e-01     3.400973e-01     3.342662e-01     4.077294e-01     5.000000e-01     
3.935449e-01     5.000000e-01     4.047434e-01     4.044243e-01     4.108065e-01     
4.224014e-01     4.064314e-01     4.256443e-01     2.302940e-01     2.298208e-02     
-2.219904e-03     -1.321488e-03     -5.978610e-02     3.395765e-01     3.059595e-01     
3.412820e-01     3.402839e-01     1.074770e-01     1.772043e-01     3.300659e-01     
3.549314e-01     3.989734e-01     3.287299e-01     3.217735e-01     4.085175e-01     
5.000000e-01     3.697653e-01     5.099820e-02     2.351180e-01     1.635917e-01     
2.714558e-01     4.238071e-01     3.300526e-01     2.987331e-01     3.027383e-01     
3.207333e-01     3.281580e-01     2.706521e-01     3.415252e-01     4.052975e-01     
2.859465e-01     2.637406e-01     -9.169678e-02     -7.259330e-02     4.150350e-02     
1.216839e-01     1.970003e-01     1.344816e-01     2.364088e-01     3.399738e-01     
2.018539e-01     3.696570e-01     3.053391e-01     2.004760e-01     2.290357e-01     
3.195085e-01     2.518770e-01     -4.979227e-03     3.249805e-01     8.985814e-02     
-2.178522e-02     2.566635e-01     3.301622e-01     3.144869e-01     2.477107e-01     
2.167192e-01     4.357722e-01     
3.996975e-01     
5.000000e-01     5.000000e-01     5.000000e-01     5.000000e-01     5.000000e-01     
4.113143e-01     5.000000e-01     4.118837e-01     5.000000e-01     5.000000e-01     
5.000000e-01     5.000000e-01     4.319890e-01     5.000000e-01     4.154058e-01     
5.000000e-01     3.394775e-01     3.402928e-01     3.000000e-01     4.000000e-01     
2.387814e-01     2.380280e-01     2.000000e-01     5.000000e-01     5.000000e-01     
4.163841e-01     4.126178e-01     5.000000e-01     4.279073e-01     5.000000e-01     
4.283888e-01     5.000000e-01     5.000000e-01     5.000000e-01     3.289274e-01     
3.547036e-01     3.232997e-01     3.894597e-01     1.556951e-01     1.805055e-01     
1.481582e-01     2.376631e-01     5.648026e-02     6.911759e-02     1.160623e-01     
1.309113e-01     2.821727e-01     2.877733e-01     2.842456e-01     3.268247e-01     
3.852755e-01     5.000000e-01     1.832712e-01     1.739836e-01     1.721953e-01     
1.364753e-01     1.072413e-01     1.095486e-01     5.000000e-01     4.053658e-01     
3.385251e-01     5.000000e-01     4.055327e-01     5.000000e-01     5.000000e-01     
5.000000e-01     4.095111e-01     5.000000e-01     4.141646e-01     5.000000e-01     
5.000000e-01     5.000000e-01     3.231408e-01     4.170601e-01     5.000000e-01     
4.135265e-01     4.008107e-01     1.054263e-01     -6.365995e-03     4.765546e-02     
3.266989e-01     3.358306e-01     3.986201e-01     2.240261e-01     2.912886e-01     
2.988119e-01     1.672159e-01     2.616783e-01     2.292181e-01     3.186511e-01     
4.163511e-01     5.000000e-01     4.051028e-01     3.710129e-02     -6.639593e-02     
9.888337e-02     2.365064e-01     1.429776e-01     -8.069215e-02     2.101569e-01     
3.466218e-01     3.957228e-01     4.255954e-01     4.226300e-01     4.202925e-01     
5.000000e-01     4.034381e-01     4.098295e-01     5.137032e-02     -4.787820e-03     
4.137511e-01     5.000000e-01     3.860737e-01     2.048148e-01     2.392080e-01     
3.347354e-01     2.116672e-01     1.113949e-01     1.139438e-01     1.335088e-02     
-4.094274e-03     6.457785e-02     3.438358e-01     3.358248e-01     3.041797e-01     
3.182157e-01     3.012151e-01     1.666425e-01     2.226308e-01     1.367728e-01     
3.692343e-02     2.526912e-02     -3.283915e-02     3.128120e-01     2.708136e-01     
3.517081e-01     2.749316e-01     3.546533e-01     3.250863e-01     3.297722e-01     
2.295623e-01     4.125538e-01     3.165263e-01     2.294673e-01     2.942431e-01     
2.480827e-01     1.874916e-01     2.955399e-01     -2.639549e-02     6.272434e-02     
2.058578e-01     3.252091e-01     2.907968e-01     -1.157303e-03     2.508757e-01     
2.582000e-01     1.297770e-01     9.571431e-02     2.378622e-01     1.607134e-01     
1.858947e-01     1.573903e-01     
-3.386666e-01     
-4.000000e-01     -3.384982e-01     -3.000000e-01     -5.000000e-01     -4.145606e-01     
-5.000000e-01     -5.000000e-01     -2.353859e-01     -2.350300e-01     -2.000000e-01     
-4.324679e-01     -5.000000e-01     -5.000000e-01     -5.000000e-01     -5.000000e-01     
-4.166513e-01     -5.000000e-01     -4.175745e-01     -5.000000e-01     -5.000000e-01     
-4.143382e-01     -5.000000e-01     -5.000000e-01     -1.000000e-01     -3.401332e-02     
-3.482816e-02     -1.351507e-01     -1.347260e-01     -5.000000e-01     -5.000000e-01     
-4.301846e-01     -4.301297e-01     -5.000000e-01     -4.167731e-01     -2.620945e-01     
-2.235773e-01     -1.732515e-01     -3.954752e-01     -1.570971e-01     -1.121779e-01     
-6.347359e-02     -1.159630e-01     -1.330806e-01     -2.966943e-02     -1.415715e-02     
5.067157e-02     -5.000000e-01     -3.875910e-01     -3.308602e-01     -6.729391e-02     
-7.909091e-02     -6.652191e-02     -3.855319e-01     -3.261616e-01     -5.000000e-01     
-5.000000e-01     -1.759934e-01     -2.378024e-01     -3.396225e-01     -3.962878e-01     
-5.000000e-01     -3.307702e-01     -3.103053e-01     -2.616473e-01     -1.558588e-01     
-2.405524e-01     -1.798795e-01     -2.292808e-01     -2.210789e-01     -1.723085e-01     
-1.134911e-01     -3.275702e-01     -5.000000e-01     -3.860552e-01     -3.269536e-01     
-1.174405e-01     -3.023762e-01     -5.000000e-01     -5.000000e-01     -4.087213e-01     
-5.000000e-01     -4.045871e-01     -5.000000e-01     -5.000000e-01     -4.113362e-01     
-4.043216e-01     -4.017895e-01     -1.772360e-01     -2.297660e-01     -3.043166e-01     
-1.612047e-01     5.170053e-02     -7.463498e-03     -1.084327e-01     -1.328559e-01     
-2.980193e-01     -5.180564e-03     8.376815e-02     -1.657397e-01     -2.246080e-02     
2.956004e-03     7.764854e-02     -2.893631e-01     -2.981142e-01     -3.056513e-01     
-2.366291e-01     -1.709137e-01     -2.671951e-01     -5.000000e-01     -4.174105e-01     
-4.152184e-01     -4.175468e-01     -4.198610e-01     -4.189208e-01     -4.029951e-01     
-1.412307e-01     -2.769245e-01     -4.307480e-01     -9.437782e-02     -2.034161e-01     
-2.336348e-01     5.229300e-02     -2.395470e-01     -1.688089e-01     -3.137295e-01     
-2.785619e-01     -1.002472e-01     -3.312094e-01     -1.538955e-01     9.029134e-03     
-1.595744e-01     -5.044899e-02     -1.065757e-01     -4.478111e-02     4.991876e-02     
4.700822e-02     4.993615e-03     -1.924303e-01     -3.260200e-01     -3.349932e-01     
-3.603571e-01     -2.097569e-01     -1.955454e-01     -3.214489e-01     -3.321700e-01     
-1.201743e-01     -1.958169e-01     -2.014007e-01     -2.407255e-02     -8.574390e-02     
-5.911103e-02     -7.536281e-02     -1.560208e-01     -2.467384e-01     -2.640091e-01     
-2.536128e-01     -3.154551e-01     -2.305381e-01     -2.683836e-01     -1.137563e-01     
-3.342174e-02     -2.303467e-01     

0      
0      0      0      0      0      0      0      0      0      0      
0      0      0      0      0      0      0      0      0      0      
0      0      0      0      0      0      0      0      0      0      
0      0      0      0      0      0      0      0      0      0      
0      0      0      0      0      0      0      0      0      0      
0      0      0      0      0      0      0      0      0      0      
0      0      0      0      0      0      0      0      0      0      
0      0      0      0      0      0      0      0      0      0      
0      0      0      0      0      0      0      0      0      0      
0      0      0      0      0      0      0      0      0      0      
0      0      0      0      0      0      0      0      0      0      
0      0      0      0      0      0      0      0      0      0      
0      0      0      0      0      0      0      0      0      0      
0      0      0      0      0      0      0      0      0      0      
0      0      0      0      0      0      0      0      0      0      
0      0      0      0      0      0      0      0      0      0      
0      0      0      0      0      0      0      0      0      0      
0      0      0      0      0      0      0      0      0      0      
0      0      0      0      0      0      0      0      0      0      
0      0      0      0      0      0      0      0      0      0      
0      0      0      0      0      0      0      0      0      0      
0      0      0      0      0      0      0      0      0      0      
0      0      0      0      0      0      0      0      0      0      
0      0      0      0      0      0      0      0      0      0      
0      0      0      0      0      0      0      0      0      0      
0      0      0      0      0      0      0      0      0      0      
0      0      0      0      0      0      0      0      0      0      
0      0      0      0      0      0      0      0      0      0      
0      0      0      0      0      0      0      0      0      0      
0      0      0      0      0      0      0      0      0      0      
0      0      0      0      0      0      0      0      0      0      
0      0      0      0      0      0      0      0      0      0      
0      0      0      0      0      0      0      0      0      0      
0      0      0      0      0      0      0      0      0      0      
0      0      0      0      0      0      0      0      0      0      
0      0      0      0      0      0      0      0      0      0      
0      0      0      0      0      0      0      0      0      0      
0      0      0      0      0      0      0      0      0      0      
0      0      0      0      0      0      0      0      0      0      
0      0      0      0      0      0      0      0      0      0      
0      0      0      0      0      0      0      0      0      0      
0      0      0      0      0      0      0      0      0      0      
0      0      0      0      0      0      0      0      0      0      
0      0      0      0      0      0      0      0      0      0      
0      0      0      0      0      0      0      0      0      0      
0      0      0      0      0      0      0      0      0      0      
0      0      0      0      0      1      1      1      1      1      
1      1      1      1      1      1      1      1      1      1      
1      1      1      1      1      1      1      1      1      1      
1      1      1      1      1      1      1      1      1      1      
1      1      1      1      1      1      1      1      1      1      
1      1      1      1      1      1      1      1      1      1      
1      1      1      1      1      1      1      1      1      1      
1      1      1      1      1      1      1      1      1      1      
1      1      1      1      1      1      1      1      1      1      
1      1      1      1      1      1      1      1      1      1      
1      1      1      1      1      1      1      1      1      1      
1      1      1      1      1      1      1      1      1      1      
1      1      1      1      1      1      1      1      1      1      
1      1      1      1      1      1      1      1      1      1      
1      1      1      1      1      1      1      1      1      1      
1      1      1      1      1      1      1      1      1      1      
1      1      1      1      1      1      1      1      1      1      
1      1      1      1      1      1      1      1      1      1      
1      1      1      1      1      1      1      1      1      1      
1      1      1      1      1      1      1      1      1      1      
1      1      1      1      1      1      1      1      1      1      
1      1      1      1      1      1      1      1      1      1      
1      1      1      1      1      1      1      1      1      1      
1      1      1      1      1      1      1      1      1      1      
1      1      1      1      1      1      1      1      1      1      
1      1      1      1      1      1      1      1      1      1      
1      1      1      1      1      1      1      1      1      1      
1      1      1      1      1      1      1      

1      2      3      39      
3      2      1      4      
1      3      4      104      
5      6      7      75      
7      6      5      8      
8      7      6      112      
9      4      10      104      
10      4      9      11      
9      10      11      92      
12      13      14      16      
14      13      12      15      
12      14      15      35      
12      16      14      114      
12      13      16      17      
16      17      13      5      
12      17      16      114      
5      16      17      75      
18      19      20      49      
20      19      18      21      
18      21      19      39      
22      23      20      49      
20      23      22      24      
22      24      23      54      
28      11      29      92      
29      11      28      25      
28      29      25      52      
30      31      32      33      
32      31      30      21      
21      30      32      39      
33      30      34      112      
34      30      33      31      
32      33      31      2      
32      30      33      39      
32      33      2      39      
14      35      12      61      
36      37      38      89      
38      37      36      9      
9      38      37      92      
9      37      36      104      
1      39      32      2      
32      39      1      19      
19      32      39      21      
19      39      1      91      
33      39      30      112      
3      39      33      112      
33      39      3      2      
1      39      3      104      
21      30      39      18      
18      39      19      49      
30      39      18      112      
40      41      42      44      
42      41      40      43      
43      42      41      101      
43      41      40      89      
44      40      41      58      
44      41      42      95      
42      47      46      101      
46      47      42      45      
42      46      45      95      
48      49      23      116      
23      49      48      18      
18      23      49      20      
18      49      48      83      
50      49      19      91      
19      49      50      22      
22      19      49      20      
22      49      50      54      
39      49      18      83      
19      49      39      91      
22      23      49      54      
51      52      27      102      
27      52      51      28      
28      27      52      25      
28      52      51      128      
53      52      29      77      
29      52      53      26      
26      29      52      25      
26      52      53      94      
27      52      26      102      
26      52      27      25      
29      52      28      92      
22      54      50      55      
55      54      50      118      
50      54      49      118      
49      54      23      116      
56      54      57      119      
57      54      56      23      
23      57      54      24      
23      54      56      116      
40      58      59      163      
59      58      40      44      
44      59      58      121      
41      58      40      163      
44      58      41      95      
60      61      35      73      
35      61      60      12      
12      61      60      114      
12      14      61      114      
63      64      3      112      
3      64      63      65      
65      3      64      104      
65      64      63      105      
69      70      65      105      
65      70      69      71      
71      65      70      10      
71      70      69      72      
65      70      10      104      
71      10      70      92      
72      71      70      77      
72      70      69      143      
74      75      7      86      
7      75      74      16      
16      7      75      5      
16      75      74      114      
17      75      16      114      
5      75      17      6      
7      75      6      112      
6      75      17      76      
76      75      17      78      
6      75      76      105      
71      77      72      53      
53      71      77      29      
72      77      70      143      
71      70      77      92      
71      77      29      92      
29      77      52      92      
53      52      77      94      
67      78      60      106      
60      78      67      76      
76      60      78      17      
76      78      67      143      
17      60      78      114      
17      78      75      114      
76      75      78      105      
82      83      84      48      
84      83      82      7      
7      84      83      112      
7      83      82      86      
49      83      39      146      
18      39      83      112      
48      83      84      18      
18      83      84      112      
48      83      49      116      
82      83      48      86      
85      86      48      116      
48      86      85      82      
82      86      85      74      
48      86      83      116      
74      82      86      7      
74      86      85      115      
83      86      7      75      
83      86      75      105      
7      83      75      112      
75      86      74      114      
85      88      79      115      
79      88      85      56      
56      79      88      119      
56      88      85      116      
43      89      90      38      
90      89      43      40      
40      90      89      163      
41      89      43      128      
40      89      41      163      
38      43      89      128      
38      89      90      36      
36      89      90      91      
38      89      37      128      
36      37      89      91      
49      91      50      118      
19      50      91      1      
39      91      49      146      
50      91      1      36      
1      91      39      104      
50      91      36      90      
1      36      91      104      
50      91      90      118      
90      91      89      118      
37      89      91      160      
37      91      36      104      
28      92      52      128      
52      92      77      117      
29      71      92      10      
70      77      92      117      
70      92      10      104      
29      10      92      11      
38      92      28      128      
28      92      38      9      
9      28      92      11      
37      92      38      128      
9      92      37      104      
10      92      9      104      
52      77      94      135      
94      53      26      93      
26      52      94      102      
41      95      58      120      
44      58      95      121      
42      44      95      45      
42      95      41      46      
41      46      95      120      
41      42      46      101      
42      101      98      47      
98      101      42      43      
43      98      101      128      
43      101      41      128      
101      98      47      99      
47      101      99      46      
46      99      47      123      
46      101      99      131      
41      101      46      152      
52      102      51      128      
26      102      94      103      
103      102      94      137      
94      102      52      135      
3      104      39      64      
64      104      39      91      
3      64      39      112      
64      91      39      146      
64      104      91      37      
64      37      91      146      
64      104      37      70      
9      104      36      1      
1      9      104      4      
70      104      37      92      
64      70      37      127      
64      104      70      65      
37      70      92      117      
65      70      64      105      
65      104      10      3      
10      3      104      4      
76      105      78      143      
75      78      105      126      
75      105      86      126      
83      86      105      127      
83      105      75      112      
63      65      105      69      
63      105      64      112      
64      105      70      127      
63      69      105      76      
69      70      105      143      
69      105      76      143      
63      76      105      6      
6      105      63      112      
75      105      6      112      
60      106      78      61      
61      60      106      73      
61      78      60      114      
61      106      78      141      
107      106      60      73      
60      106      107      67      
78      106      67      68      
68      78      106      124      
68      67      78      143      
79      111      80      81      
80      111      79      110      
110      111      79      119      
79      111      81      119      
83      112      39      64      
64      83      112      105      
64      39      83      146      
64      83      105      127      
7      84      112      8      
8      84      112      34      
8      112      6      113      
113      8      112      34      
113      112      6      63      
113      112      63      3      
113      112      33      34      
33      112      113      3      
34      112      30      84      
84      112      30      18      
75      114      78      126      
61      78      114      141      
17      60      114      12      
14      114      16      62      
61      114      14      62      
62      114      16      74      
61      114      62      87      
87      114      62      74      
61      114      87      141      
87      114      74      86      
86      114      75      126      
86      87      114      126      
86      74      87      115      
88      115      86      145      
86      115      88      85      
85      88      86      116      
115      88      79      81      
79      81      88      119      
86      115      87      142      
83      116      86      145      
85      116      48      56      
86      116      88      145      
56      116      48      23      
88      116      56      119      
56      116      54      119      
54      116      49      146      
49      116      83      146      
37      70      117      149      
37      117      92      128      
77      117      70      125      
92      117      52      128      
77      52      117      135      
54      118      97      129      
97      118      54      55      
55      97      118      163      
55      118      50      90      
49      118      54      146      
49      91      118      146      
55      118      90      163      
89      118      91      160      
90      118      89      163      
57      56      119      110      
56      119      110      79      
116      119      88      129      
54      119      116      129      
88      119      81      158      
95      120      46      133      
41      46      120      152      
58      120      95      132      
41      120      58      148      
100      121      95      132      
95      121      100      96      
96      95      121      44      
44      121      122      59      
122      121      44      96      
58      95      121      132      
59      58      121      97      
58      121      97      159      
59      58      97      163      
46      99      123      131      
106      124      108      68      
108      124      106      109      
109      108      124      139      
109      124      106      140      
78      106      124      141      
78      124      68      144      
68      124      108      154      
70      125      117      149      
77      117      125      153      
77      125      70      143      
78      105      126      143      
86      126      105      127      
78      126      114      141      
86      127      83      145      
126      127      86      145      
105      127      126      143      
64      83      127      146      
37      127      70      149      
64      127      37      146      
70      127      105      143      
102      128      52      135      
43      51      128      38      
128      51      43      98      
37      128      89      117      
89      117      128      130      
89      37      117      149      
52      128      117      135      
38      51      128      28      
89      128      41      130      
41      128      101      152      
88      116      129      145      
88      129      119      158      
54      119      129      97      
54      129      116      146      
97      129      118      159      
54      118      129      146      
117      128      130      135      
117      130      89      149      
41      130      128      152      
89      130      41      148      
101      131      46      152      
95      132      120      133      
58      120      132      159      
58      132      121      159      
121      132      100      155      
132      133      95      134      
134      132      133      151      
120      133      132      151      
46      133      120      131      
120      131      133      151      
120      46      131      152      
77      94      135      153      
77      135      117      153      
102      135      94      137      
135      137      102      136      
136      135      137      138      
94      137      135      153      
135      137      138      153      
136      135      138      152      
124      139      108      154      
109      139      124      157      
126      141      78      124      
124      126      141      156      
124      78      126      144      
106      124      141      140      
106      141      61      140      
87      141      114      126      
86      115      142      145      
86      142      87      126      
86      142      126      145      
127      143      70      125      
127      143      125      144      
70      127      125      149      
126      143      127      144      
78      143      126      144      
69      72      143      66      
66      143      69      67      
67      143      69      76      
66      143      67      68      
68      143      78      144      
124      144      126      156      
68      144      124      154      
129      145      116      146      
88      145      129      158      
116      145      83      146      
83      145      127      146      
127      146      145      160      
91      146      37      160      
37      146      127      160      
91      118      146      160      
58      148      120      159      
41      120      148      130      
41      148      58      163      
120      130      41      152      
120      148      130      159      
89      130      148      160      
89      148      41      163      
89      149      130      160      
117      130      149      153      
117      149      125      153      
37      127      149      160      
89      37      149      160      
134      151      133      150      
131      151      120      161      
120      152      131      161      
120      130      152      161      
128      152      130      135      
138      152      135      153      
117      153      135      130      
130      153      135      152      
147      153      130      152      
130      153      147      125      
125      130      153      149      
130      147      152      161      
124      154      144      156      
124      139      154      157      
132      155      121      159      
124      156      141      157      
156      157      124      154      
141      124      157      140      
124      157      140      109      
58      148      159      163      
118      97      159      163      
118      159      129      148      
118      148      129      160      
118      159      148      163      
58      159      97      163      
118      148      160      89      
118      160      129      146      
145      160      146      129      
118      148      89      163      
152      161      147      162      
152      161      162      131      
59      40      163      90      
59      163      97      55      