title = " tecplot file for process Mesh " 
variables = "x",  "y", "z", "cell_type" 
zone N = 160 E = 728 DATAPACKING = BLOCK,  VARLOCATION = ([4]=CELLCENTERED), ZONETYPE=FETETRAHEDRON 
-4.177536e-01     
-5.000000e-01     -5.000000e-01     -5.000000e-01     -3.315611e-02     -3.313789e-02     
-1.000000e-01     0.000000e+00     -2.340401e-01     -2.344499e-01     -2.000000e-01     
-3.000000e-01     -4.144103e-01     -5.000000e-01     -5.000000e-01     -5.000000e-01     
-5.000000e-01     -4.167653e-01     -5.000000e-01     -5.000000e-01     -5.000000e-01     
-4.124296e-01     -3.376596e-01     -3.384099e-01     -4.000000e-01     -4.299081e-01     
-5.000000e-01     -5.000000e-01     -4.302667e-01     -5.000000e-01     -4.124731e-01     
-5.000000e-01     -4.192510e-01     -5.000000e-01     -4.055522e-01     -5.000000e-01     
-4.194027e-01     -5.000000e-01     -4.094840e-01     -5.000000e-01     -5.000000e-01     
-4.174432e-01     -4.113460e-01     -5.000000e-01     -2.594656e-01     -2.212012e-01     
-1.700978e-01     5.343321e-02     2.372490e-02     5.288504e-02     5.142756e-02     
-6.454143e-02     -1.509501e-01     -1.117001e-01     -1.066632e-01     -2.248305e-01     
-2.707984e-01     -3.280991e-01     -2.937004e-03     1.011689e-01     5.037238e-02     
1.073171e-01     -7.709856e-02     -1.336164e-01     -1.338189e-01     -6.491680e-02     
-2.019927e-01     5.242170e-02     -2.513119e-01     -2.995243e-01     -3.207404e-01     
-3.265207e-01     -2.122135e-01     -2.236791e-01     -1.616496e-01     -3.100577e-01     
-3.306343e-01     -2.611290e-01     -2.291413e-01     -2.204774e-01     -1.711619e-01     
-2.469646e-01     -2.171179e-01     -1.138230e-01     -1.166339e-01     -1.730534e-03     
-5.419015e-02     -1.098876e-01     1.101390e-01     1.125923e-01     -4.404711e-03     
-1.840125e-01     -4.112996e-01     -5.000000e-01     -4.179853e-01     -4.107988e-01     
-4.012225e-01     -4.032624e-01     -4.146330e-01     -3.425255e-01     -3.480101e-01     
-3.203865e-01     -1.326338e-01     -1.702191e-02     1.653039e-01     1.007869e-01     
-2.885713e-01     -3.065244e-01     -3.252054e-01     -1.549392e-01     -1.136391e-01     
-1.948314e-01     1.827557e-01     9.197105e-02     1.283474e-02     5.683595e-02     
-1.630298e-02     -4.012454e-01     -3.317843e-01     -3.244908e-01     -1.744830e-01     
1.030467e-01     -6.364385e-02     -5.341566e-02     -3.270501e-01     -2.961233e-01     
-2.754078e-01     -2.042337e-01     -1.720812e-01     -3.373271e-01     -1.584565e-01     
-2.210977e-01     -2.483809e-01     -3.751860e-03     5.218213e-02     -9.162179e-02     
-8.676880e-02     -8.321667e-02     -1.493282e-02     -3.205075e-01     -3.104070e-01     
-3.546399e-01     -1.431286e-01     -2.682389e-01     -2.358085e-01     -1.961513e-01     
-2.177017e-01     -1.528662e-01     -2.368652e-01     -1.976659e-01     3.438444e-02     
1.676496e-01     -1.288556e-01     -4.938817e-02     -8.746209e-02     1.133502e-02     
-1.060894e-01     -1.074120e-01     -2.757414e-01     -2.668339e-01     
-3.441993e-01     
-4.000000e-01     -3.377690e-01     -3.000000e-01     -4.168183e-01     -5.000000e-01     
-5.000000e-01     -5.000000e-01     -5.000000e-01     -4.139231e-01     -5.000000e-01     
-5.000000e-01     -2.460605e-01     -2.341010e-01     -2.000000e-01     -4.169221e-01     
-5.000000e-01     -5.000000e-01     -5.000000e-01     -5.000000e-01     -4.128241e-01     
-5.000000e-01     -5.000000e-01     -4.032166e-01     -5.000000e-01     -5.000000e-01     
-4.299518e-01     -5.000000e-01     -4.299604e-01     -2.597546e-01     -2.213850e-01     
-1.702994e-01     -3.948809e-01     -2.256034e-01     -2.712972e-01     -3.285335e-01     
-3.860932e-01     -2.324125e-01     -2.034846e-01     -1.524380e-01     -1.120386e-01     
-3.821111e-01     -5.000000e-01     -3.214402e-01     -5.000000e-01     -4.129487e-01     
-5.000000e-01     -3.401999e-01     -4.261663e-01     -5.000000e-01     -5.000000e-01     
-5.000000e-01     -5.000000e-01     -5.000000e-01     -4.133069e-01     -5.000000e-01     
-4.055820e-01     -5.000000e-01     -5.000000e-01     -4.219029e-01     -5.000000e-01     
-5.000000e-01     -4.179129e-01     -5.000000e-01     -4.134976e-01     -3.273394e-01     
-4.140975e-01     -4.080957e-01     -1.495234e-01     -1.488034e-01     -9.988136e-02     
-1.970054e-01     -1.187031e-01     -6.364693e-02     -1.429388e-01     -3.440088e-01     
-2.939841e-01     -3.348257e-01     -2.395921e-01     -3.001351e-01     -3.259874e-01     
-1.137681e-02     4.358733e-02     -2.348938e-01     -2.960736e-01     -2.383166e-01     
-1.388053e-01     -1.722127e-01     -2.414973e-01     -3.030324e-01     -3.019520e-01     
-4.425270e-01     -3.011018e-01     -1.336441e-01     -1.576366e-01     -1.445889e-01     
-1.330280e-01     -2.767875e-01     -2.913535e-01     -4.248630e-01     -4.249508e-01     
-5.000000e-01     -4.021218e-01     -4.125561e-01     -4.002265e-01     -4.243209e-01     
-4.293627e-01     -2.464302e-01     -6.026705e-02     -4.088278e-02     -3.345468e-02     
-2.103986e-01     -4.115795e-01     -3.822720e-01     -2.066505e-01     -1.449067e-01     
-3.678818e-01     -3.332027e-01     -3.318754e-01     -2.424339e-01     -2.954571e-01     
-3.155017e-01     -2.367926e-01     -4.290663e-01     -2.398524e-01     -3.807663e-01     
-3.373837e-01     -2.943101e-01     -1.627495e-01     -1.147359e-01     -3.293066e-01     
-2.212639e-01     -3.318915e-01     -3.173463e-01     -2.333157e-01     -3.210125e-01     
-9.009057e-02     -8.937836e-02     4.256697e-03     -1.485078e-01     -2.861248e-01     
-3.407985e-01     -2.318108e-01     -1.092280e-01     -2.285682e-01     -7.867744e-02     
-3.482608e-01     -1.510331e-01     -1.330900e-01     -4.889083e-02     -3.293514e-01     
-3.348211e-01     -2.435818e-01     -1.934466e-01     -1.592217e-01     -1.764174e-01     
-4.147658e-03     5.526841e-02     -2.834111e-01     -8.901062e-02     
-5.000000e-01     
-5.000000e-01     -4.027417e-01     -5.000000e-01     -5.000000e-01     -4.190770e-01     
-5.000000e-01     -5.000000e-01     -4.150188e-01     -5.000000e-01     -5.000000e-01     
-5.000000e-01     -5.000000e-01     -4.144987e-01     -5.000000e-01     -3.434511e-01     
-4.000000e-01     -3.435858e-01     -3.000000e-01     -2.000000e-01     -2.448251e-01     
-2.449652e-01     -4.029938e-01     -5.000000e-01     -5.000000e-01     -4.297341e-01     
-4.296638e-01     -5.000000e-01     -5.000000e-01     -3.347614e-01     -3.592049e-01     
-3.283546e-01     -3.919522e-01     -2.392799e-01     -2.887011e-01     -2.920622e-01     
-2.934461e-01     -1.286301e-01     -1.770769e-01     -1.633208e-01     -2.427303e-01     
-1.936814e-01     -1.457775e-01     -1.905254e-01     -3.354959e-01     -3.600736e-01     
-3.297060e-01     -5.000000e-01     -3.990269e-01     -3.437939e-01     -4.342096e-01     
-3.327785e-01     -1.655643e-01     -2.454988e-01     -1.884521e-01     -2.404678e-01     
-2.894892e-01     -2.925038e-01     -2.462603e-01     -1.854388e-01     -1.523998e-01     
-2.452712e-01     -3.891802e-01     -4.156851e-01     -5.000000e-01     -5.000000e-01     
-1.785075e-01     -2.784418e-01     -5.000000e-01     -4.205582e-01     -5.000000e-01     
-5.000000e-01     -4.178016e-01     -5.000000e-01     -5.000000e-01     -4.105864e-01     
-5.000000e-01     -5.000000e-01     -5.000000e-01     -4.179730e-01     -5.000000e-01     
-4.174976e-01     -5.000000e-01     -5.000000e-01     -4.121145e-01     -5.000000e-01     
-5.000000e-01     -4.121949e-01     -5.000000e-01     -4.008383e-01     -4.027988e-01     
-4.431310e-01     -4.137741e-01     -4.148846e-01     -4.158507e-01     -5.000000e-01     
-2.917118e-01     -9.746187e-02     -2.003570e-01     -3.469142e-01     -2.399184e-01     
-1.909427e-01     -2.951280e-01     -2.157014e-01     -2.761386e-01     -3.525814e-01     
-4.296850e-01     -4.178749e-01     -4.167946e-01     -4.128204e-01     -5.000000e-01     
-4.182626e-01     -3.874800e-01     -4.330288e-01     -4.094005e-01     -5.000000e-01     
-3.331742e-01     -1.428054e-01     -3.148071e-01     -2.269009e-01     -3.118138e-01     
-2.951537e-01     -3.305522e-01     -2.894363e-01     -3.274051e-01     -1.061380e-01     
-2.042522e-01     -1.315150e-01     -3.188502e-01     -3.490430e-01     -2.163464e-01     
-2.361199e-01     -3.413378e-01     -2.466457e-01     -2.496117e-01     -3.307006e-01     
-2.447248e-01     -3.510303e-01     -3.071596e-01     -8.291304e-02     -1.278330e-01     
-2.338076e-01     -3.561029e-01     -2.951861e-01     -3.265814e-01     -3.390820e-01     
-2.682010e-01     -1.529690e-01     -2.108879e-01     -2.167022e-01     -1.575708e-01     
-2.925726e-01     -2.460004e-01     -2.293956e-01     -2.995653e-01     -3.170221e-01     
-3.342696e-01     -2.669173e-01     -2.830183e-01     -3.705798e-01     

0      
0      0      0      0      0      0      0      0      0      0      
0      0      0      0      0      0      0      0      0      0      
0      0      0      0      0      0      0      0      0      0      
0      0      0      0      0      0      0      0      0      0      
0      0      0      0      0      0      0      0      0      0      
0      0      0      0      0      0      0      0      0      0      
0      0      0      0      0      0      0      0      0      0      
0      0      0      0      0      0      0      0      0      0      
0      0      0      0      0      0      0      0      0      0      
0      0      0      0      0      0      0      0      0      0      
0      0      0      0      0      0      0      0      0      0      
0      0      0      0      0      0      0      0      0      0      
0      0      0      0      0      0      0      0      0      0      
0      0      0      0      0      0      0      0      0      0      
0      0      0      0      0      0      0      0      0      0      
0      0      0      0      0      0      0      0      0      0      
0      0      0      0      0      0      0      0      0      0      
0      0      0      0      0      0      0      0      0      0      
0      0      0      0      0      0      0      0      0      0      
0      0      0      0      0      0      0      0      0      0      
0      0      0      0      0      0      0      0      0      0      
0      0      0      0      0      0      0      0      0      0      
0      0      0      0      0      0      0      0      0      0      
0      0      0      0      0      0      0      0      0      0      
0      0      0      0      0      0      0      0      0      0      
0      0      0      0      0      0      0      0      0      0      
0      0      0      0      0      0      0      0      0      0      
0      0      0      0      0      0      0      0      0      0      
0      0      0      0      0      0      0      0      0      0      
0      0      0      0      0      0      0      0      0      0      
0      0      0      0      0      0      0      0      0      0      
0      0      0      0      0      0      0      0      0      0      
0      0      0      0      0      0      0      0      0      0      
0      0      0      0      0      0      0      0      0      0      
0      0      0      0      0      0      0      0      0      0      
0      0      0      0      0      0      0      0      0      0      
0      0      0      0      0      0      0      0      0      0      
0      0      0      0      0      0      0      0      0      0      
0      0      0      0      0      0      0      0      0      0      
0      0      0      0      0      0      0      0      0      0      
0      0      0      0      0      0      0      0      0      0      
0      0      0      0      0      0      0      0      0      0      
0      0      0      0      0      0      0      0      0      0      
0      0      0      0      0      0      0      0      0      0      
0      0      0      0      0      0      0      0      0      0      
0      0      0      0      0      0      0      0      0      0      
0      0      0      0      0      1      1      1      1      1      
1      1      1      1      1      1      1      1      1      1      
1      1      1      1      1      1      1      1      1      1      
1      1      1      1      1      1      1      1      1      1      
1      1      1      1      1      1      1      1      1      1      
1      1      1      1      1      1      1      1      1      1      
1      1      1      1      1      1      1      1      1      1      
1      1      1      1      1      1      1      1      1      1      
1      1      1      1      1      1      1      1      1      1      
1      1      1      1      1      1      1      1      1      1      
1      1      1      1      1      1      1      1      1      1      
1      1      1      1      1      1      1      1      1      1      
1      1      1      1      1      1      1      1      1      1      
1      1      1      1      1      1      1      1      1      1      
1      1      1      1      1      1      1      1      1      1      
1      1      1      1      1      1      1      1      1      1      
1      1      1      1      1      1      1      1      1      1      
1      1      1      1      1      1      1      1      1      1      
1      1      1      1      1      1      1      1      1      1      
1      1      1      1      1      1      1      1      1      1      
1      1      1      1      1      1      1      1      1      1      
1      1      1      1      1      1      1      1      1      1      
1      1      1      1      1      1      1      1      1      1      
1      1      1      1      1      1      1      1      1      1      
1      1      1      1      1      1      1      1      1      1      
1      1      1      1      1      1      1      1      1      1      
1      1      1      1      1      1      1      

1      2      3      33      
3      2      1      4      
1      3      4      93      
5      6      7      63      
7      6      5      8      
5      8      6      49      
9      10      11      92      
11      10      9      12      
9      12      10      107      
13      4      14      93      
14      4      13      15      
13      14      15      95      
16      17      18      33      
18      17      16      19      
16      18      19      37      
20      21      22      42      
22      21      20      19      
19      22      21      37      
12      23      24      107      
24      23      12      25      
25      24      23      26      
24      23      26      33      
25      24      26      29      
27      26      17      33      
17      26      27      28      
27      28      26      29      
26      29      24      33      
25      29      26      28      
28      29      27      2      
2      29      27      33      
26      27      29      33      
30      31      14      93      
14      31      30      32      
32      14      31      95      
32      31      30      35      
3      33      16      37      
16      33      3      27      
27      16      33      17      
27      33      3      2      
18      33      17      26      
16      33      18      37      
18      33      26      23      
24      23      33      107      
18      33      23      100      
24      33      29      1      
24      33      1      76      
29      1      33      2      
1      33      3      93      
34      35      30      36      
30      35      34      32      
32      35      34      97      
31      35      32      97      
30      35      31      93      
36      34      35      99      
36      35      30      93      
3      37      36      93      
36      37      3      16      
16      36      37      21      
33      37      3      93      
36      37      21      42      
16      21      37      19      
18      37      33      100      
22      37      18      101      
18      37      22      19      
21      37      22      42      
38      39      34      99      
34      39      38      40      
40      34      39      41      
41      34      39      97      
22      42      37      101      
42      22      20      43      
36      42      44      99      
44      42      36      21      
36      37      42      99      
45      46      47      57      
47      46      45      9      
9      47      46      92      
9      46      45      107      
50      49      51      106      
51      49      50      6      
6      51      49      8      
6      49      50      52      
52      6      49      63      
52      49      50      124      
5      49      6      63      
56      57      47      103      
47      57      56      45      
45      57      56      58      
47      57      46      103      
45      46      57      100      
45      57      58      100      
56      58      57      101      
59      60      61      104      
61      60      59      62      
62      60      59      68      
6      63      52      64      
64      6      63      7      
64      63      52      47      
52      63      49      124      
49      63      5      91      
64      7      63      92      
5      63      7      65      
5      63      65      66      
7      65      63      92      
47      63      52      103      
64      63      47      92      
66      63      65      85      
5      63      66      91      
53      67      54      55      
54      67      53      56      
56      54      67      103      
55      67      54      103      
62      68      59      50      
50      62      68      106      
50      68      59      124      
59      68      60      104      
62      60      68      105      
69      70      71      73      
71      70      69      72      
72      71      70      95      
72      70      69      79      
69      73      74      75      
74      73      69      71      
69      70      73      112      
75      73      74      110      
69      73      75      112      
24      76      77      78      
77      76      24      1      
1      77      76      93      
1      76      33      93      
24      33      76      107      
78      24      76      107      
78      76      77      108      
79      80      78      108      
78      80      79      81      
81      78      80      10      
81      80      79      112      
78      80      10      107      
81      10      80      92      
84      85      81      112      
81      85      84      66      
66      81      85      65      
66      85      84      86      
81      85      65      92      
63      85      66      91      
65      85      63      92      
86      85      84      88      
66      85      86      91      
87      88      84      75      
84      88      87      86      
86      88      87      115      
84      75      88      112      
85      91      63      136      
66      5      91      48      
63      91      49      117      
5      49      91      48      
48      91      66      86      
49      91      48      114      
48      91      86      89      
89      48      91      90      
89      91      86      115      
90      91      89      115      
48      91      90      114      
86      91      85      115      
63      92      85      46      
46      63      92      47      
46      85      63      136      
46      92      85      80      
85      92      81      80      
65      81      92      10      
80      81      85      112      
46      80      85      121      
46      92      80      107      
80      92      10      107      
65      10      92      11      
64      92      47      9      
9      64      92      11      
9      92      46      107      
11      92      65      7      
11      92      7      64      
9      10      92      107      
33      93      76      119      
77      93      13      108      
13      93      77      1      
1      13      93      4      
76      93      77      108      
13      93      31      108      
31      93      13      14      
14      13      31      95      
30      93      3      36      
3      93      30      14      
14      3      93      4      
31      93      35      125      
35      93      36      37      
35      93      37      119      
36      35      37      99      
37      93      33      119      
14      95      32      94      
94      14      95      15      
32      95      31      97      
72      95      96      71      
96      95      72      13      
13      96      95      15      
13      95      72      108      
31      95      13      108      
35      97      31      125      
34      97      35      39      
32      97      34      41      
39      97      35      120      
34      39      35      99      
31      97      95      130      
37      99      35      142      
37      42      99      142      
98      99      44      118      
44      99      98      38      
38      44      99      34      
38      99      98      39      
39      99      98      141      
44      99      34      36      
44      99      42      118      
35      99      39      120      
46      57      100      133      
46      100      45      107      
37      100      18      101      
33      100      37      119      
45      100      58      23      
23      45      100      107      
23      100      58      18      
58      100      57      101      
58      18      100      101      
23      100      33      107      
57      67      101      127      
101      67      57      56      
57      56      67      103      
58      101      56      102      
102      58      101      22      
57      101      100      119      
22      101      18      58      
100      101      37      119      
37      101      42      142      
46      47      103      63      
46      103      57      147      
56      103      47      54      
47      54      103      52      
67      103      55      131      
54      55      103      124      
54      103      52      124      
52      103      63      124      
46      63      103      136      
60      104      68      151      
59      68      104      124      
62      105      68      106      
60      68      105      122      
50      106      68      49      
49      68      50      124      
49      106      68      117      
68      106      105      122      
100      107      46      76      
76      100      107      33      
76      46      100      133      
76      107      46      80      
9      107      45      23      
23      9      107      12      
33      76      100      119      
24      107      78      10      
10      24      107      12      
78      107      76      80      
76      78      80      108      
76      80      46      133      
78      108      77      79      
76      108      80      133      
77      79      108      72      
79      80      108      112      
79      108      72      70      
77      72      108      13      
31      108      93      125      
31      95      108      70      
72      108      95      70      
31      70      108      125      
31      95      70      130      
93      108      76      125      
95      109      70      130      
70      109      95      71      
110      75      73      88      
73      88      75      112      
73      110      88      146      
111      110      74      83      
74      110      111      75      
74      110      73      82      
74      110      82      83      
73      82      110      146      
84      112      88      85      
85      112      88      143      
81      84      112      79      
80      112      85      143      
84      112      79      75      
70      112      108      145      
108      112      70      79      
79      112      70      69      
69      79      112      75      
70      73      112      145      
73      88      112      129      
80      108      112      145      
90      106      114      117      
114      106      90      113      
90      113      106      152      
91      114      49      117      
90      114      91      117      
85      86      115      88      
85      115      91      123      
87      86      115      116      
86      115      116      89      
91      115      90      122      
106      114      117      49      
106      117      90      122      
90      117      91      122      
68      49      117      124      
68      117      106      122      
91      117      63      136      
49      63      117      124      
42      118      99      142      
35      93      119      125      
35      119      37      142      
76      119      93      125      
100      119      76      133      
37      119      101      142      
57      101      119      142      
57      119      100      133      
39      120      99      141      
35      99      120      142      
35      120      97      125      
85      121      80      143      
46      80      121      133      
46      121      85      136      
91      122      117      134      
117      122      68      134      
90      106      122      152      
68      122      60      151      
115      123      85      88      
88      115      123      156      
88      123      85      143      
91      85      123      136      
91      123      115      156      
59      124      104      54      
68      104      124      134      
68      124      117      134      
52      124      50      59      
117      124      63      136      
52      124      59      54      
54      124      104      55      
63      124      103      136      
103      124      55      134      
55      124      104      134      
76      125      108      133      
119      125      76      133      
120      125      119      159      
119      125      120      35      
35      120      119      142      
70      108      125      145      
70      125      31      130      
31      125      97      130      
57      67      127      147      
57      127      101      142      
112      129      88      143      
73      88      129      146      
73      129      112      145      
70      125      130      145      
55      131      103      134      
67      103      131      147      
132      127      131      147      
131      127      132      128      
132      128      127      141      
121      133      80      145      
46      133      121      147      
119      125      133      159      
80      133      108      145      
108      133      125      145      
57      119      133      159      
46      57      133      147      
103      134      131      136      
124      134      103      136      
68      134      122      151      
122      134      91      135      
135      122      134      151      
135      134      91      123      
117      91      134      136      
123      134      91      136      
135      123      91      156      
121      136      131      153      
131      136      121      103      
103      121      131      147      
103      136      121      46      
131      136      134      153      
124      134      136      117      
85      136      121      143      
103      46      121      147      
85      123      136      143      
120      141      127      142      
127      141      120      132      
132      120      127      159      
127      141      128      126      
39      141      98      140      
99      141      120      142      
57      142      119      159      
127      142      57      159      
120      142      127      159      
119      142      120      159      
88      143      129      155      
112      129      143      145      
88      123      143      155      
121      143      136      153      
136      143      123      153      
112      143      80      145      
80      143      121      145      
144      145      129      160      
129      145      144      132      
132      129      145      153      
132      144      129      149      
132      145      144      120      
73      145      70      160      
129      145      73      160      
70      145      130      160      
132      120      144      149      
132      145      120      159      
143      145      129      153      
121      145      143      153      
133      145      121      159      
125      145      133      159      
138      146      129      88      
129      146      138      137      
137      129      146      149      
137      146      138      157      
73      146      129      160      
88      129      138      155      
121      147      133      159      
57      147      103      67      
133      147      57      159      
131      147      121      132      
67      147      131      127      
121      132      147      159      
121      131      132      153      
132      127      147      159      
57      147      127      159      
148      149      129      137      
129      149      148      132      
132      148      129      153      
129      149      144      146      
129      146      144      160      
134      151      68      104      
121      153      132      145      
129      153      148      155      
143      153      129      155      
121      145      132      159      
134      153      136      123      
148      155      153      154      
154      155      153      123      
123      154      155      156      
123      155      153      143      
88      123      155      156      
157      138      137      139      
137      157      139      158      
137      157      158      150      
150      137      157      146      