title = " tecplot file for process Mesh " 
variables = "x",  "y", "z", "cell_type" 
zone N = 165 E = 748 DATAPACKING = BLOCK,  VARLOCATION = ([4]=CELLCENTERED), ZONETYPE=FETETRAHEDRON 
-5.000000e-01     
-4.107988e-01     -5.000000e-01     -5.000000e-01     -5.000000e-01     -4.000277e-01     
-5.000000e-01     -5.000000e-01     -5.000000e-01     -4.286001e-01     -5.000000e-01     
-4.185837e-01     -5.000000e-01     -5.000000e-01     -4.149223e-01     -5.000000e-01     
-5.000000e-01     -5.000000e-01     -4.203127e-01     -5.000000e-01     -5.000000e-01     
-5.000000e-01     -5.000000e-01     -4.061858e-01     -5.000000e-01     -3.356435e-01     
-5.000000e-01     -5.000000e-01     -4.218143e-01     -5.000000e-01     -5.000000e-01     
-5.000000e-01     -4.094840e-01     -5.000000e-01     -4.051338e-01     -5.000000e-01     
-4.112100e-01     -5.000000e-01     -5.000000e-01     -4.090414e-01     -5.000000e-01     
-5.000000e-01     -5.000000e-01     -4.054596e-01     -3.985716e-01     -5.000000e-01     
-4.110969e-01     -4.012287e-01     -5.000000e-01     -5.000000e-01     -3.207404e-01     
-2.236791e-01     -2.122135e-01     -2.995243e-01     -2.171179e-01     -2.469646e-01     
-3.000968e-01     -4.179853e-01     -4.012225e-01     -4.032624e-01     -4.048229e-01     
-5.000000e-01     -5.000000e-01     -4.039991e-01     -4.073702e-01     -5.000000e-01     
-3.980864e-01     -4.107858e-01     -4.199913e-01     -3.252054e-01     -2.073977e-01     
-1.216309e-01     -3.195370e-01     -3.846262e-01     -4.175553e-01     -1.136391e-01     
-1.549392e-01     -3.379306e-01     -3.326272e-01     -3.111418e-01     -4.323981e-01     
-3.699585e-01     -3.244908e-01     -3.057680e-01     -3.680274e-01     -2.808388e-01     
-3.351033e-01     -3.249335e-01     -3.190908e-01     -4.459200e-01     -3.270501e-01     
-3.294297e-01     -2.711591e-01     -2.682389e-01     -3.373271e-01     -2.990160e-01     
-1.976659e-01     -2.143522e-01     -1.941556e-01     -1.074120e-01     -1.728598e-01     
-3.394273e-01     -3.031029e-01     -3.257467e-01     -2.327623e-01     -2.711606e-01     
-2.644272e-01     -2.873063e-01     -3.133363e-01     -2.745640e-01     -3.474381e-01     
-3.205075e-01     -3.104070e-01     -2.210977e-01     -2.358085e-01     -1.961513e-01     
-3.398157e-01     -3.379727e-01     -2.707177e-01     -2.368652e-01     -1.528662e-01     
-8.676880e-02     -2.594341e-01     -2.291930e-01     9.822835e-05     -2.541109e-02     
7.790079e-02     -2.362282e-02     -1.372274e-01     -1.060894e-01     -2.272779e-01     
-2.328602e-01     -2.226762e-01     -2.376792e-01     -2.453883e-01     -1.581102e-01     
-2.391774e-01     -1.752325e-01     -1.803283e-01     -1.295475e-01     -1.985911e-01     
-2.844957e-01     2.813883e-02     -8.680247e-03     -7.420712e-02     -2.095044e-01     
-1.225027e-01     -3.165824e-02     6.713383e-02     -1.007032e-01     -6.652962e-02     
-9.934045e-02     -7.100724e-02     -1.324849e-01     -1.466239e-01     -1.901810e-01     
-1.170894e-01     -6.291875e-02     -1.514510e-01     -1.179282e-01     -1.471830e-02     
-4.316724e-01     -2.668339e-01     -1.862195e-01     -1.184857e-01     
-1.000000e-01     
-1.445889e-01     -1.336441e-01     -2.000000e-01     0.000000e+00     -3.358090e-02     
-3.315300e-02     5.141707e-02     1.000000e-01     5.547660e-02     -2.396219e-01     
-2.789189e-01     -2.636376e-01     6.228643e-02     3.543992e-02     5.240016e-02     
-8.366834e-03     1.440880e-01     -5.276190e-02     -7.039417e-02     -7.952470e-02     
-6.024899e-03     -1.694939e-01     2.371462e-02     5.287977e-02     7.334503e-02     
-6.462224e-02     -5.781284e-02     -1.074298e-01     -1.120386e-01     -2.988429e-03     
-1.524380e-01     -2.034846e-01     -2.324125e-01     1.096455e-01     1.225622e-01     
-7.713979e-02     -1.702994e-01     1.472925e-01     1.018513e-01     5.069471e-02     
1.075666e-01     -1.672063e-01     -1.189335e-01     -1.273472e-01     -1.330231e-01     
-3.368854e-03     1.111513e-01     1.730076e-01     1.370172e-01     -9.988136e-02     
-6.364693e-02     -1.187031e-01     -1.488034e-01     4.358733e-02     -1.137681e-02     
-1.407082e-02     -1.576366e-01     -1.330280e-01     -2.767875e-01     1.368977e-01     
2.279456e-01     2.320153e-01     -1.467599e-01     -1.867207e-01     -2.490588e-01     
-1.729986e-02     2.044487e-01     1.885479e-01     -6.026705e-02     7.716463e-02     
6.950034e-02     4.286206e-02     9.940011e-02     1.440526e-01     -3.345468e-02     
-4.088278e-02     1.047620e-01     -2.137908e-01     -1.080025e-01     5.492080e-02     
-1.035602e-02     -2.424339e-01     5.341083e-04     -6.365939e-02     -9.868880e-02     
6.012513e-02     4.629024e-02     1.960923e-01     -6.669972e-02     -2.398524e-01     
-1.397059e-01     -1.962442e-01     -1.092280e-01     -1.147359e-01     -1.382256e-02     
-4.889083e-02     7.034472e-02     9.643864e-03     5.526841e-02     1.322244e-01     
-3.320251e-02     -1.442318e-01     7.434720e-02     9.992067e-02     -4.694584e-04     
9.851786e-02     1.837134e-01     1.318267e-01     -2.223731e-01     -2.425458e-01     
-1.485078e-01     -2.861248e-01     -2.212639e-01     -2.285682e-01     -7.867744e-02     
-4.623874e-02     -1.007755e-01     6.984407e-02     -1.330900e-01     -1.510331e-01     
-9.009057e-02     1.197064e-02     -1.007283e-01     6.465504e-02     -2.585592e-02     
8.039002e-03     2.650584e-02     2.967240e-02     -4.147658e-03     7.852036e-03     
1.794806e-01     -1.367538e-01     -1.870477e-01     -1.663794e-01     -1.642414e-01     
-5.227723e-02     -5.581811e-03     9.721807e-02     1.139759e-01     -6.445561e-02     
-7.619716e-02     2.280225e-02     -9.220390e-02     7.852802e-02     8.959515e-02     
-6.285369e-02     9.773667e-02     1.077926e-01     2.619822e-02     -5.878848e-02     
-2.124176e-02     -9.508555e-02     -1.283313e-01     -2.178111e-01     -1.788628e-01     
1.427798e-01     -3.786000e-02     -9.010675e-02     -1.181168e-01     1.290992e-01     
5.084255e-02     -8.901062e-02     -2.027105e-01     -1.601817e-01     
-5.000000e-01     
-5.000000e-01     -4.148846e-01     -5.000000e-01     -5.000000e-01     -5.000000e-01     
-4.181727e-01     -4.334662e-01     -5.000000e-01     -5.000000e-01     -2.877674e-02     
9.828848e-03     5.341879e-02     2.751135e-02     7.123904e-02     1.312398e-01     
5.496594e-02     6.041773e-02     7.028715e-02     1.303165e-01     2.557900e-02     
-4.723589e-02     5.774721e-02     -3.978846e-01     -3.420148e-01     -5.000000e-01     
-3.308520e-01     -1.486378e-01     -1.848963e-01     -2.427303e-01     -2.427119e-01     
-1.633208e-01     -1.770769e-01     -1.286301e-01     1.139045e-02     -5.375772e-02     
-3.879698e-01     -3.283546e-01     -1.564646e-01     -1.819551e-01     -1.468052e-01     
-2.425956e-01     1.592121e-01     1.749481e-01     7.441303e-03     -6.100230e-02     
-1.793849e-01     -3.041262e-01     -3.277683e-01     -4.174195e-01     -5.000000e-01     
-5.000000e-01     -4.178016e-01     -4.205582e-01     -5.000000e-01     -4.174976e-01     
-5.000000e-01     -4.158507e-01     -2.917118e-01     -9.746187e-02     -8.658382e-02     
-1.117702e-01     -7.773377e-04     -9.251752e-02     8.501758e-02     1.355396e-01     
-2.918028e-01     1.765416e-02     -2.571999e-01     -4.167946e-01     -4.091550e-01     
-5.000000e-01     -4.162048e-01     -4.336902e-01     -5.000000e-01     -5.000000e-01     
-4.128204e-01     9.305486e-02     -3.136316e-02     9.417112e-02     -5.669591e-02     
-4.206277e-02     -2.269009e-01     5.383750e-02     -1.203543e-01     -2.804394e-02     
-1.156740e-01     -2.333918e-01     -4.586274e-02     -8.017357e-02     -3.274051e-01     
-2.178115e-01     -1.314117e-01     -2.951861e-01     -3.490430e-01     -3.263607e-01     
-2.167022e-01     -2.335928e-01     -3.232020e-01     -2.669173e-01     -3.175967e-01     
1.251280e-01     1.951654e-01     1.258007e-02     1.042529e-01     -3.926417e-02     
-4.403614e-02     5.126215e-02     -1.823315e-01     7.511149e-02     1.242502e-01     
-8.291304e-02     -1.278330e-01     -2.361199e-01     -3.265814e-01     -3.390820e-01     
-2.236478e-01     -2.781188e-01     -3.451845e-01     -2.108879e-01     -1.529690e-01     
-2.447248e-01     -1.635886e-01     1.473061e-01     -2.319624e-01     -2.208904e-01     
-1.699825e-01     -1.452995e-01     -1.593557e-01     -3.342696e-01     1.017809e-01     
-8.880661e-02     4.869574e-02     -3.878390e-02     1.329907e-01     1.248303e-01     
3.325330e-02     -3.863238e-03     1.555004e-02     -7.257091e-02     -9.710986e-02     
-1.566228e-01     -5.066427e-02     -1.422391e-01     -1.912195e-01     -1.264903e-01     
-1.624526e-01     -7.657097e-02     -1.710265e-01     -5.257005e-02     -2.919534e-02     
5.291877e-02     1.139302e-01     -5.773290e-02     -1.537561e-02     1.847153e-01     
-1.528913e-01     -1.097965e-01     7.554143e-02     1.657129e-01     -1.549413e-01     
-2.489746e-01     -3.705798e-01     6.437256e-02     5.207872e-02     

0      
0      0      0      0      0      0      0      0      0      0      
0      0      0      0      0      0      0      0      0      0      
0      0      0      0      0      0      0      0      0      0      
0      0      0      0      0      0      0      0      0      0      
0      0      0      0      0      0      0      0      0      0      
0      0      0      0      0      0      0      0      0      0      
0      0      0      0      0      0      0      0      0      0      
0      0      0      0      0      0      0      0      0      0      
0      0      0      0      0      0      0      0      0      0      
0      0      0      0      0      0      0      0      0      0      
0      0      0      0      0      0      0      0      0      0      
0      0      0      0      0      0      0      0      0      0      
0      0      0      0      0      0      0      0      0      0      
0      0      0      0      0      0      0      0      0      0      
0      0      0      0      0      0      0      0      0      0      
0      0      0      0      0      0      0      0      0      0      
0      0      0      0      0      0      0      0      0      0      
0      0      0      0      0      0      0      0      0      0      
0      0      0      0      0      0      0      0      0      0      
0      0      0      0      0      0      0      0      0      0      
0      0      0      0      0      0      0      0      0      0      
0      0      0      0      0      0      0      0      0      0      
0      0      0      0      0      0      0      0      0      0      
0      0      0      0      0      0      0      0      0      0      
0      0      0      0      0      0      0      0      0      0      
0      0      0      0      0      0      0      0      0      0      
0      0      0      0      0      0      0      0      0      0      
0      0      0      0      0      0      0      0      0      0      
0      0      0      0      0      0      0      0      0      0      
0      0      0      0      0      0      0      0      0      0      
0      0      0      0      0      0      0      0      0      0      
0      0      0      0      0      0      0      0      0      0      
0      0      0      0      0      0      0      0      0      0      
0      0      0      0      0      0      0      0      0      0      
0      0      0      0      0      0      0      0      0      0      
0      0      0      0      0      0      0      0      0      0      
0      0      0      0      0      0      0      0      0      0      
0      0      0      0      0      0      0      0      0      0      
0      0      0      0      0      0      0      0      0      0      
0      0      0      0      0      0      0      0      0      0      
0      0      0      0      0      0      0      0      0      0      
0      0      0      0      0      0      0      0      0      0      
0      0      0      0      0      0      0      0      0      0      
0      0      0      0      0      0      0      0      0      0      
0      0      0      0      0      0      0      0      0      0      
0      0      0      0      0      0      0      0      0      0      
0      0      0      0      0      1      1      1      1      1      
1      1      1      1      1      1      1      1      1      1      
1      1      1      1      1      1      1      1      1      1      
1      1      1      1      1      1      1      1      1      1      
1      1      1      1      1      1      1      1      1      1      
1      1      1      1      1      1      1      1      1      1      
1      1      1      1      1      1      1      1      1      1      
1      1      1      1      1      1      1      1      1      1      
1      1      1      1      1      1      1      1      1      1      
1      1      1      1      1      1      1      1      1      1      
1      1      1      1      1      1      1      1      1      1      
1      1      1      1      1      1      1      1      1      1      
1      1      1      1      1      1      1      1      1      1      
1      1      1      1      1      1      1      1      1      1      
1      1      1      1      1      1      1      1      1      1      
1      1      1      1      1      1      1      1      1      1      
1      1      1      1      1      1      1      1      1      1      
1      1      1      1      1      1      1      1      1      1      
1      1      1      1      1      1      1      1      1      1      
1      1      1      1      1      1      1      1      1      1      
1      1      1      1      1      1      1      1      1      1      
1      1      1      1      1      1      1      1      1      1      
1      1      1      1      1      1      1      1      1      1      
1      1      1      1      1      1      1      1      1      1      
1      1      1      1      1      1      1      1      1      1      
1      1      1      1      1      1      1      1      1      1      
1      1      1      1      1      1      1      1      1      1      
1      1      1      1      1      1      1      1      1      1      
1      1      1      1      1      1      1      

1      2      3      37      
3      2      1      4      
4      3      2      58      
5      6      7      24      
7      6      5      1      
1      7      6      37      
8      9      10      74      
10      9      8      5      
8      10      5      24      
14      15      16      18      
16      15      14      17      
17      16      15      19      
17      15      14      22      
18      14      15      35      
16      19      17      20      
20      19      17      21      
17      19      15      22      
21      19      17      22      
20      19      21      23      
21      19      22      90      
23      19      21      45      
20      19      23      65      
7      24      6      37      
5      6      24      10      
5      24      7      8      
6      24      10      26      
8      24      7      25      
10      24      8      74      
25      24      7      27      
8      24      25      74      
26      24      10      74      
6      24      26      73      
25      24      27      67      
7      27      24      37      
28      29      30      32      
30      29      28      31      
31      30      29      67      
31      29      28      47      
28      29      32      90      
30      32      29      33      
30      33      29      59      
32      29      33      64      
14      35      36      81      
36      35      14      18      
18      36      35      68      
15      35      14      81      
27      37      3      38      
3      37      27      7      
7      3      37      1      
27      24      37      67      
6      37      24      70      
1      37      6      2      
2      37      6      70      
38      37      3      58      
27      37      38      59      
39      40      41      61      
41      40      39      42      
42      41      40      162      
42      40      39      69      
23      45      21      46      
46      23      45      11      
46      45      21      90      
19      45      23      65      
21      45      19      90      
11      23      45      65      
11      45      46      64      
41      47      28      90      
28      47      41      31      
31      47      41      162      
28      47      29      90      
31      29      47      67      
42      48      25      162      
25      48      42      49      
49      25      48      50      
49      48      42      69      
50      25      48      74      
55      56      57      73      
57      56      55      52      
52      57      56      70      
37      58      38      59      
3      58      37      2      
29      30      59      67      
29      59      33      92      
59      38      27      30      
27      59      30      67      
27      37      59      67      
58      59      37      95      
36      61      62      39      
62      61      36      63      
63      61      36      68      
36      61      39      41      
36      61      41      81      
41      61      40      81      
46      11      64      34      
46      64      45      90      
46      34      64      32      
60      64      33      112      
33      64      60      34      
34      33      64      32      
32      64      46      90      
33      64      29      92      
32      29      64      90      
11      23      65      13      
11      65      45      12      
12      65      45      79      
11      65      12      13      
23      65      66      43      
66      65      23      13      
23      65      43      20      
45      65      19      80      
20      19      65      44      
19      65      44      80      
20      44      65      43      
31      67      47      162      
29      47      67      117      
37      59      67      95      
30      67      31      27      
27      67      31      25      
24      37      67      96      
31      25      67      162      
25      24      67      48      
24      67      48      96      
25      48      67      162      
25      24      48      74      
29      67      59      118      
36      63      68      18      
36      68      61      35      
35      61      36      81      
35      68      61      89      
42      69      48      40      
40      48      42      162      
53      70      51      52      
51      70      53      54      
54      70      53      163      
52      53      70      56      
52      70      51      57      
53      70      56      163      
51      57      70      6      
57      56      70      73      
24      70      37      96      
6      70      24      73      
57      70      6      73      
51      6      70      2      
2      70      51      58      
37      70      2      58      
37      70      58      95      
73      55      56      71      
56      71      55      77      
56      73      71      119      
55      73      57      26      
26      73      57      6      
56      70      73      96      
24      73      70      96      
26      73      24      74      
24      74      73      48      
48      73      24      96      
50      25      74      8      
10      75      74      9      
74      75      10      26      
9      74      8      50      
72      77      55      71      
55      77      72      76      
45      79      65      80      
19      45      80      84      
44      80      65      111      
19      80      44      102      
35      81      15      104      
14      15      81      22      
15      81      82      104      
82      81      15      22      
22      82      81      90      
22      15      82      19      
22      81      36      41      
36      81      22      14      
41      81      47      90      
47      81      41      40      
40      47      81      87      
40      41      47      162      
40      81      61      87      
41      22      81      90      
35      61      81      104      
82      84      15      104      
15      84      82      19      
19      84      82      45      
45      82      19      90      
45      84      82      86      
45      80      84      86      
85      86      82      106      
82      86      85      45      
45      85      82      90      
45      86      85      112      
80      86      79      133      
79      86      80      45      
45      79      86      112      
82      86      84      106      
84      86      80      137      
85      87      47      117      
47      87      85      82      
82      47      87      81      
82      85      47      90      
82      87      85      106      
88      87      40      109      
40      87      88      47      
47      88      40      162      
47      87      88      117      
82      81      87      104      
82      47      81      90      
61      87      81      104      
40      87      61      109      
68      89      35      108      
61      35      89      104      
85      90      45      64      
64      85      90      29      
64      45      85      112      
22      21      90      46      
22      90      19      82      
46      90      22      28      
47      90      85      29      
22      90      41      28      
29      85      47      117      
29      64      85      92      
32      28      90      46      
85      92      64      112      
29      92      85      117      
64      92      33      112      
93      92      83      120      
83      92      93      33      
33      83      92      59      
33      93      83      113      
33      92      93      112      
59      92      29      118      
59      83      92      91      
83      92      91      94      
59      91      92      118      
94      92      91      118      
83      94      91      115      
83      92      94      120      
37      95      67      96      
59      67      95      118      
70      95      37      96      
88      96      67      117      
67      96      88      48      
48      88      67      162      
48      96      88      119      
70      95      96      163      
67      96      95      118      
56      70      96      163      
56      96      73      119      
96      97      98      99      
98      97      96      88      
88      98      97      123      
88      96      98      119      
88      97      96      117      
96      97      99      116      
98      99      97      100      
98      96      99      119      
97      100      99      130      
98      99      100      101      
98      100      97      129      
101      98      99      119      
44      102      80      103      
44      103      80      111      
84      104      82      106      
15      104      84      78      
82      104      87      106      
61      87      104      89      
89      104      35      108      
78      104      84      105      
105      84      78      131      
105      104      84      139      
15      104      78      35      
35      104      78      108      
86      106      85      142      
85      106      87      123      
84      106      86      137      
84      104      106      139      
107      106      104      139      
104      106      107      87      
87      107      104      89      
87      106      107      146      
104      108      107      139      
107      108      104      89      
89      107      108      132      
88      87      109      123      
87      109      89      61      
89      109      87      107      
107      89      109      132      
107      109      87      146      
110      111      80      135      
80      111      110      65      
65      110      80      79      
92      112      85      142      
93      33      112      113      
93      112      92      142      
64      112      60      79      
64      45      112      79      
85      112      86      142      
79      86      112      134      
83      113      93      114      
114      93      83      120      
115      94      91      95      
91      95      94      118      
96      116      99      56      
56      96      116      163      
56      99      96      119      
47      117      88      67      
67      88      47      162      
97      117      88      123      
96      117      97      94      
94      96      117      118      
94      97      96      116      
94      117      97      120      
92      117      29      118      
85      117      92      142      
87      117      85      123      
88      117      87      123      
29      117      67      118      
67      117      96      118      
59      118      95      91      
95      118      96      94      
94      118      117      92      
92      117      94      120      
95      94      96      163      
48      96      119      73      
101      119      99      71      
71      119      99      56      
92      117      120      142      
97      120      117      142      
94      120      97      116      
120      114      93      121      
93      120      121      141      
92      120      93      142      
121      120      97      141      
97      120      121      122      
122      121      97      147      
106      123      85      142      
87      123      106      146      
85      123      117      142      
117      123      97      142      
87      109      123      146      
97      123      98      129      
128      127      126      144      
126      127      128      125      
128      125      127      149      
128      126      125      145      
98      129      123      146      
97      123      129      141      
100      129      98      157      
97      129      100      147      
97      130      99      116      
105      84      131      139      
107      108      132      139      
107      132      109      146      
134      79      86      133      
86      134      133      154      
86      112      134      141      
80      110      135      133      
80      135      111      103      
80      135      103      124      
124      135      103      156      
80      135      124      133      
110      135      133      164      
80      110      133      79      
133      124      80      137      
133      135      124      136      
136      133      135      164      
136      124      133      159      
136      135      124      156      
131      137      84      80      
84      137      131      138      
138      84      137      106      
138      131      84      139      
138      137      131      159      
80      131      137      124      
133      124      137      159      
133      137      80      86      
131      137      124      159      
86      133      137      154      
106      137      138      141      
84      106      138      139      
86      137      106      141      
138      139      106      146      
138      131      139      152      
106      139      107      146      
120      141      93      142      
86      137      141      154      
86      141      106      142      
138      106      141      146      
138      141      137      154      
86      112      141      142      
86      141      134      154      
97      141      120      142      
121      141      97      147      
97      141      129      147      
123      129      141      146      
123      141      97      142      
123      142      106      141      
106      123      141      146      
141      142      112      93      
128      143      144      158      
144      143      128      127      
128      127      143      149      
128      144      126      158      
100      145      129      157      
129      145      100      126      
126      129      145      128      
126      100      129      147      
126      145      100      125      
129      145      128      148      
126      129      128      158      
125      128      145      161      
132      146      107      139      
98      129      146      157      
129      141      146      150      
138      146      141      150      
126      147      129      158      
147      100      97      122      
121      141      147      154      
129      147      141      158      
145      148      129      157      
128      129      148      150      
128      148      145      161      
128      149      143      148      
128      148      143      150      
128      149      148      161      
128      125      149      161      
148      150      129      140      
140      150      129      146      
128      129      150      158      
128      150      143      158      
151      150      141      158      
141      150      151      138      
138      151      141      154      
138      150      151      152      
140      150      146      139      
150      152      138      139      
151      138      152      159      
141      154      151      158      
138      151      154      159      
137      138      154      159      
133      137      154      159      
133      154      134      155      
133      154      155      165      
147      154      141      158      
124      136      156      160      
150      158      151      143      
141      158      150      129      
152      159      138      131      
151      159      152      153      
154      159      151      165      
133      159      154      165      
136      124      159      160      
136      159      133      165      
136      160      159      165      
157      145      148      161      