title = " tecplot file for process Mesh " 
variables = "x",  "y", "z", "cell_type" 
zone N = 148 E = 687 DATAPACKING = BLOCK,  VARLOCATION = ([4]=CELLCENTERED), ZONETYPE=FETETRAHEDRON 
4.304725e-01     
5.000000e-01     5.000000e-01     5.000000e-01     4.138911e-01     5.000000e-01     
5.000000e-01     5.000000e-01     4.230521e-01     5.000000e-01     5.000000e-01     
5.000000e-01     5.000000e-01     4.303613e-01     5.000000e-01     5.000000e-01     
5.000000e-01     5.000000e-01     4.198149e-01     5.000000e-01     5.000000e-01     
4.160512e-01     4.235157e-01     5.000000e-01     4.224965e-01     5.000000e-01     
5.000000e-01     4.101700e-01     4.196692e-01     4.098849e-01     5.000000e-01     
4.187492e-01     4.179799e-01     4.039898e-01     4.068689e-01     -9.147264e-03     
-9.031392e-03     4.200367e-02     -9.207013e-03     -6.869719e-02     5.022342e-02     
1.501960e-01     1.742860e-01     2.351653e-01     1.374968e-01     1.014158e-01     
2.284843e-01     2.583683e-01     3.209482e-01     2.256724e-01     9.917837e-02     
1.180346e-01     2.977917e-01     3.230947e-01     3.351150e-01     4.206741e-01     
3.567247e-01     4.145841e-01     3.657682e-01     5.000000e-01     4.139700e-01     
4.044243e-01     1.987211e-01     2.233532e-01     3.087477e-01     1.986779e-01     
1.961318e-01     7.397752e-02     1.312557e-01     2.432708e-02     -5.767558e-03     
-4.244873e-03     3.797276e-01     3.245082e-01     3.697653e-01     3.524303e-01     
3.179778e-01     2.825846e-01     4.568436e-02     3.600535e-01     2.445006e-01     
3.216928e-01     1.260943e-01     3.348320e-01     2.706521e-01     3.281580e-01     
3.203314e-01     2.520400e-01     2.925369e-01     3.377007e-01     2.553297e-01     
2.833963e-01     2.013146e-01     2.496232e-01     3.379978e-01     3.162134e-02     
2.312966e-01     2.004760e-01     3.412021e-01     2.964894e-01     3.328683e-01     
3.409599e-01     4.014865e-01     3.693300e-02     1.155761e-01     1.156640e-01     
1.576681e-01     2.349369e-01     2.447976e-01     1.861441e-01     3.339947e-01     
3.374313e-01     2.789008e-01     1.088349e-01     1.972600e-01     1.570651e-01     
1.016838e-01     2.742418e-01     1.696001e-01     7.905179e-02     -1.341925e-02     
9.249366e-02     1.498652e-01     1.158583e-01     2.110073e-01     1.447527e-01     
2.905901e-02     -1.957481e-02     5.146898e-02     1.559192e-01     2.590701e-01     
2.333877e-01     -6.652962e-02     3.612759e-01     2.363186e-01     2.739562e-01     
2.626427e-01     -4.619762e-02     1.084511e-01     1.859918e-01     2.533067e-01     
2.622141e-02     1.131434e-01     9.027723e-02     2.118781e-01     4.099856e-02     
2.626539e-01     1.856247e-01     
-5.000000e-01     
-5.000000e-01     -4.188956e-01     -5.000000e-01     -5.000000e-01     -4.181984e-01     
-5.000000e-01     -2.691570e-01     -2.872865e-01     -2.533145e-01     -3.393881e-01     
-3.333612e-01     -1.785461e-01     -2.840612e-01     -2.461096e-01     -3.369169e-01     
7.489395e-03     -8.318273e-02     2.405180e-02     -1.635182e-01     -2.461408e-01     
-1.911011e-01     -3.650669e-01     -4.523982e-02     -9.524623e-02     -8.969532e-02     
-1.508035e-01     -1.171414e-01     -3.890695e-01     -5.000000e-01     -4.156489e-01     
-5.134342e-02     -3.024566e-01     -2.077479e-01     7.421862e-03     -5.000000e-01     
-4.167469e-01     -5.000000e-01     -4.028995e-01     -5.000000e-01     -5.000000e-01     
-5.000000e-01     -4.098718e-01     -5.000000e-01     -5.000000e-01     -4.061212e-01     
-5.000000e-01     -4.084011e-01     -5.000000e-01     -5.000000e-01     -4.035043e-01     
-5.000000e-01     -4.003213e-01     -5.000000e-01     -5.000000e-01     -1.948771e-01     
-4.135243e-01     -5.000000e-01     -4.140831e-01     -1.092533e-01     -1.252840e-01     
-8.069215e-02     -4.032024e-01     -5.000000e-01     -3.892964e-01     -4.039836e-01     
-4.097718e-01     -4.249799e-01     -4.017245e-01     -4.183076e-01     -5.000000e-01     
-4.120401e-01     -4.308062e-01     -3.075439e-01     6.457785e-02     -4.389718e-01     
-5.000000e-01     -3.715318e-01     -3.176117e-01     -2.042335e-01     -3.394432e-01     
-2.457445e-01     -2.963745e-01     -1.229664e-01     -3.283915e-02     2.526912e-02     
-4.705125e-02     4.633019e-02     -2.065641e-01     -3.077736e-01     -2.281132e-01     
-3.924305e-01     -3.179462e-01     -2.917544e-01     -3.175963e-01     -2.891629e-01     
-2.843860e-01     -2.639549e-02     -2.154933e-01     -1.408985e-01     -1.236659e-01     
-5.901176e-02     -3.556295e-02     -3.232240e-01     -3.422400e-01     -3.183128e-01     
-2.747160e-01     -4.055738e-01     -2.788453e-01     -1.625679e-01     -2.938918e-01     
-1.634167e-01     -3.525105e-01     -3.193928e-01     -3.455042e-01     -2.831383e-01     
-1.889891e-01     -1.160611e-01     -2.359027e-01     -2.734712e-01     -2.391649e-01     
-2.045178e-01     -8.010773e-02     -1.516871e-01     -1.631262e-01     -9.261482e-02     
-4.029087e-02     -1.540425e-01     -8.234295e-02     -2.267822e-01     -2.300906e-01     
-8.348887e-02     -5.878848e-02     -3.404361e-01     -3.938057e-01     -3.265220e-01     
-3.426203e-01     -2.431931e-01     -2.046765e-01     -1.634368e-01     -1.102908e-01     
-1.703304e-01     -1.554318e-01     -2.192406e-02     -1.397422e-01     -1.277071e-01     
-7.572686e-02     -3.464308e-01     
5.176183e-02     
0.000000e+00     4.866508e-02     1.000000e-01     -3.301221e-02     -4.950366e-02     
-1.000000e-01     4.352172e-02     1.420023e-03     -3.881931e-02     -4.423402e-04     
-9.511343e-02     3.562174e-02     8.771642e-02     1.256384e-01     9.398918e-02     
4.679255e-02     -1.924155e-02     -1.261730e-02     -7.452855e-02     -1.357217e-01     
-1.250842e-01     4.740398e-02     1.479346e-01     1.205610e-01     7.055627e-02     
1.431922e-01     2.897882e-02     -9.749084e-02     -1.338943e-01     -1.478554e-01     
-6.902415e-02     -1.416553e-01     1.673827e-01     1.132617e-01     8.402114e-02     
4.687186e-02     2.899590e-02     1.192813e-01     1.365092e-01     1.373134e-01     
1.568161e-01     1.100328e-01     1.123584e-01     6.092387e-02     1.777201e-01     
-1.033622e-03     -5.940573e-02     -6.456296e-02     -1.126206e-01     1.142486e-02     
-5.564519e-02     1.139868e-01     1.755449e-01     5.405715e-02     -2.819864e-02     
-1.728220e-02     1.376871e-01     2.105416e-01     2.360632e-01     2.072431e-01     
-1.657397e-01     2.091420e-01     2.312251e-01     -1.704207e-01     -1.671589e-01     
1.528624e-02     9.460922e-02     -8.771877e-02     -3.724132e-02     -6.195801e-02     
-1.228837e-01     9.123681e-02     -6.537041e-02     5.229300e-02     -1.158871e-01     
-1.715377e-01     2.473656e-02     6.557520e-02     6.872372e-02     -2.221125e-01     
-1.798691e-01     -1.634586e-01     -8.873213e-02     -1.065757e-01     -5.044899e-02     
5.612593e-02     3.777487e-02     1.600270e-01     1.200665e-01     5.693221e-02     
1.984327e-01     6.646995e-02     -1.147283e-02     -1.450895e-01     -6.230164e-02     
-1.245410e-01     -2.407255e-02     -7.383668e-02     9.874390e-03     1.101786e-01     
-2.858808e-02     4.232569e-02     1.703431e-01     1.162524e-01     2.358952e-01     
1.578260e-01     1.475814e-01     1.350745e-01     1.287147e-01     2.800556e-02     
-1.638307e-01     -1.090523e-01     -8.298573e-02     -7.050786e-02     -2.246243e-02     
2.219312e-01     2.222330e-01     7.882730e-02     3.849417e-03     8.744332e-02     
4.785591e-02     -1.039839e-01     -3.152298e-02     -5.282582e-02     4.137124e-02     
5.922692e-02     3.413638e-02     -5.766458e-02     -1.020221e-01     -6.724497e-02     
3.612803e-02     -2.919534e-02     1.805792e-01     7.599875e-02     8.454107e-02     
1.551217e-01     -1.155453e-02     1.350005e-01     2.169463e-01     1.392663e-01     
-4.453414e-02     -1.288893e-01     -3.802190e-03     -1.453962e-01     1.148639e-01     
-3.868051e-02     1.524600e-01     

0      
0      0      0      0      0      0      0      0      0      0      
0      0      0      0      0      0      0      0      0      0      
0      0      0      0      0      0      0      0      0      0      
0      0      0      0      0      0      0      0      0      0      
0      0      0      0      0      0      0      0      0      0      
0      0      0      0      0      0      0      0      0      0      
0      0      0      0      0      0      0      0      0      0      
0      0      0      0      0      0      0      0      0      0      
0      0      0      0      0      0      0      0      0      0      
0      0      0      0      0      0      0      0      0      0      
0      0      0      0      0      0      0      0      0      0      
0      0      0      0      0      0      0      0      0      0      
0      0      0      0      0      0      0      0      0      0      
0      0      0      0      0      0      0      0      0      0      
0      0      0      0      0      0      0      0      0      0      
0      0      0      0      0      0      0      0      0      0      
0      0      0      0      0      0      0      0      0      0      
0      0      0      0      0      0      0      0      0      0      
0      0      0      0      0      0      0      0      0      0      
0      0      0      0      0      0      0      0      0      0      
0      0      0      0      0      0      0      0      0      0      
0      0      0      0      0      0      0      0      0      0      
0      0      0      0      0      0      0      0      0      0      
0      0      0      0      0      0      0      0      0      0      
0      0      0      0      0      0      0      0      0      0      
0      0      0      0      0      0      0      0      0      0      
0      0      0      0      0      0      0      0      0      0      
0      0      0      0      0      0      0      0      0      0      
0      0      0      0      0      0      0      0      0      0      
0      0      0      0      0      0      0      0      0      0      
0      0      0      0      0      0      0      0      0      0      
0      0      0      0      0      0      0      0      0      0      
0      0      0      0      0      0      0      0      0      0      
0      0      0      0      0      0      0      0      0      0      
0      0      0      0      0      0      0      0      0      0      
0      0      0      0      0      0      0      0      0      0      
0      0      0      0      0      0      0      0      0      0      
0      0      0      0      0      0      0      0      0      0      
0      0      0      0      0      0      0      0      0      0      
0      0      0      0      0      0      0      0      0      0      
0      0      0      0      0      0      0      0      0      0      
0      0      0      0      0      0      0      0      0      0      
0      0      0      0      0      0      0      0      0      0      
0      0      0      0      0      0      0      0      0      0      
0      0      0      0      0      0      0      0      0      0      
0      0      0      0      0      0      0      0      0      0      
0      0      0      0      0      0      1      1      1      1      
1      1      1      1      1      1      1      1      1      1      
1      1      1      1      1      1      1      1      1      1      
1      1      1      1      1      1      1      1      1      1      
1      1      1      1      1      1      1      1      1      1      
1      1      1      1      1      1      1      1      1      1      
1      1      1      1      1      1      1      1      1      1      
1      1      1      1      1      1      1      1      1      1      
1      1      1      1      1      1      1      1      1      1      
1      1      1      1      1      1      1      1      1      1      
1      1      1      1      1      1      1      1      1      1      
1      1      1      1      1      1      1      1      1      1      
1      1      1      1      1      1      1      1      1      1      
1      1      1      1      1      1      1      1      1      1      
1      1      1      1      1      1      1      1      1      1      
1      1      1      1      1      1      1      1      1      1      
1      1      1      1      1      1      1      1      1      1      
1      1      1      1      1      1      1      1      1      1      
1      1      1      1      1      1      1      1      1      1      
1      1      1      1      1      1      1      1      1      1      
1      1      1      1      1      1      1      1      1      1      
1      1      1      1      1      1      1      1      1      1      
1      1      1      1      1      1      

1      2      3      5      
3      2      1      4      
4      1      3      73      
5      3      1      23      
5      2      3      6      
6      5      2      7      
6      3      5      23      
6      5      7      29      
8      9      10      56      
10      9      8      11      
11      10      9      12      
11      9      8      23      
10      9      12      33      
11      12      9      29      
13      14      8      56      
8      14      13      15      
15      8      14      16      
15      14      13      80      
16      8      14      23      
10      21      22      33      
22      21      10      20      
10      22      20      56      
11      23      3      6      
3      23      11      16      
16      23      11      8      
9      23      11      29      
8      23      9      14      
9      14      23      111      
9      8      14      56      
11      23      6      29      
6      23      5      57      
1      23      3      73      
5      23      1      57      
24      25      26      35      
26      25      24      27      
27      26      25      13      
27      25      24      61      
26      25      13      28      
27      13      25      80      
26      28      18      103      
18      28      26      13      
13      18      28      56      
25      28      26      103      
13      28      25      80      
23      29      9      57      
6      11      29      12      
6      29      23      57      
7      29      5      30      
30      29      5      76      
6      5      29      57      
6      29      7      31      
6      29      31      12      
9      29      12      33      
29      33      9      74      
10      21      33      12      
10      33      22      56      
9      33      10      56      
24      35      26      17      
17      35      26      103      
26      35      25      103      
41      39      36      68      
36      39      41      40      
42      43      44      108      
44      43      42      45      
45      44      43      67      
45      43      42      68      
47      48      49      57      
49      48      47      50      
50      49      48      76      
50      48      47      69      
38      51      45      68      
45      51      38      52      
52      45      51      67      
52      51      38      70      
44      53      54      108      
54      53      44      55      
55      54      53      73      
55      53      44      135      
32      56      22      84      
22      56      32      20      
20      32      22      62      
20      56      32      18      
18      56      32      28      
20      56      18      13      
28      56      32      84      
18      28      32      103      
13      20      56      10      
13      56      28      80      
13      10      56      8      
9      33      56      99      
22      56      33      99      
47      57      49      55      
55      47      57      78      
55      57      49      5      
48      57      47      78      
49      57      48      76      
55      57      5      1      
49      5      57      76      
55      57      1      73      
1      57      23      73      
9      23      57      111      
9      57      29      74      
29      57      5      76      
27      61      24      60      
27      25      61      34      
25      34      27      80      
25      61      34      101      
22      62      32      84      
43      42      63      108      
63      42      43      46      
43      46      42      68      
43      63      46      148      
48      65      50      76      
50      65      48      66      
66      48      50      69      
66      65      48      113      
45      67      47      44      
47      67      45      52      
52      47      67      69      
52      67      51      69      
45      51      67      43      
51      67      43      93      
45      51      43      68      
47      44      67      135      
44      43      67      135      
39      68      46      104      
46      68      39      41      
41      46      68      42      
43      68      51      105      
45      68      42      41      
43      46      68      105      
45      68      41      38      
38      68      41      36      
38      51      68      37      
51      68      37      79      
38      37      68      36      
38      51      37      70      
37      68      36      39      
37      68      39      79      
51      52      69      70      
51      69      67      115      
47      50      69      52      
47      69      48      67      
48      67      69      115      
48      47      67      78      
66      48      69      115      
37      70      51      79      
70      38      52      71      
51      70      69      114      
54      73      59      53      
59      73      54      58      
58      73      54      55      
53      73      59      134      
54      53      59      92      
4      1      73      58      
1      73      58      55      
57      73      55      78      
23      73      57      78      
55      73      53      78      
9      74      33      99      
29      33      74      95      
57      74      9      111      
29      74      57      76      
77      76      49      50      
49      76      77      30      
30      49      76      5      
48      76      57      74      
29      74      76      95      
48      65      76      113      
73      78      23      90      
57      23      78      111      
53      55      78      135      
53      78      73      90      
47      78      55      135      
57      78      48      74      
67      78      47      135      
48      78      67      115      
57      78      74      111      
48      74      78      94      
51      79      70      96      
39      79      68      104      
68      79      51      105      
25      80      28      101      
27      13      80      15      
27      80      34      15      
25      34      80      101      
56      80      9      111      
9      80      56      14      
14      9      80      111      
14      80      56      13      
28      80      56      100      
15      14      80      34      
14      80      34      90      
32      84      62      85      
22      62      84      112      
85      84      62      112      
32      84      85      102      
28      56      84      100      
28      84      32      102      
22      84      56      99      
89      90      91      109      
91      90      89      80      
80      91      90      111      
80      89      91      101      
80      90      89      34      
80      90      14      111      
34      89      80      101      
59      92      53      134      
54      53      92      108      
67      93      51      115      
43      51      93      105      
43      93      67      135      
78      94      74      111      
48      74      94      113      
48      94      78      115      
33      74      95      82      
76      95      74      113      
51      79      96      120      
51      96      70      114      
74      95      97      113      
97      95      74      82      
74      97      82      131      
56      99      84      100      
22      84      99      112      
9      99      56      111      
33      99      74      82      
9      74      99      111      
33      99      82      22      
22      99      82      112      
28      100      84      102      
84      100      99      131      
56      99      100      111      
56      100      80      111      
28      80      100      101      
91      101      89      141      
80      101      91      100      
100      101      91      132      
80      100      91      111      
28      101      100      87      
87      101      100      132      
28      87      100      102      
28      101      87      25      
34      89      101      61      
89      101      61      118      
84      102      100      147      
100      102      87      147      
28      87      102      103      
28      102      32      103      
85      32      102      86      
85      102      84      147      
86      102      85      147      
32      102      86      103      
87      103      75      86      
75      103      87      35      
35      75      103      17      
35      103      87      25      
86      103      75      19      
19      86      103      32      
19      103      75      17      
87      103      86      102      
86      87      102      147      
28      87      103      25      
18      103      32      19      
18      103      19      17      
17      18      103      26      
46      104      68      105      
68      104      79      105      
46      104      105      106      
79      105      104      139      
93      105      51      120      
43      105      93      148      
51      105      79      120      
43      46      105      148      
46      106      105      148      
104      105      106      107      
107      105      106      148      
107      104      105      139      
44      108      43      135      
42      108      44      64      
63      108      42      64      
43      108      63      148      
44      64      108      54      
63      108      64      92      
92      108      64      54      
63      108      92      137      
44      53      108      135      
92      108      53      137      
91      89      109      110      
91      109      90      136      
110      109      91      119      
89      110      91      141      
94      111      78      136      
74      111      94      131      
23      78      111      90      
78      111      90      136      
23      90      111      14      
90      111      91      136      
91      111      100      131      
99      111      74      131      
84      99      112      131      
82      112      99      131      
74      113      97      94      
95      97      113      81      
48      74      113      76      
48      113      94      115      
94      113      97      115      
74      94      97      131      
81      113      95      65      
65      81      113      66      
65      113      95      76      
81      97      113      66      
66      97      113      115      
48      66      113      115      
72      114      70      96      
70      114      72      69      
69      51      114      115      
51      96      114      120      
97      115      66      83      
83      97      115      130      
83      115      66      69      
83      115      69      114      
83      115      114      130      
114      115      51      116      
114      115      116      130      
51      116      115      93      
51      114      116      120      
94      115      97      116      
116      94      115      93      
116      97      94      131      
116      115      97      130      
94      115      93      78      
116      94      93      119      
67      115      78      93      
101      118      89      141      
93      119      105      120      
105      119      93      107      
107      105      119      139      
107      93      105      148      
107      119      93      109      
91      119      109      93      
110      109      119      107      
110      119      91      132      
107      119      110      139      
93      119      94      91      
116      94      119      125      
116      119      93      120      
91      94      93      136      
91      119      94      125      
91      93      109      136      
93      107      109      148      
79      120      121      138      
121      120      79      122      
122      121      120      138      
122      79      121      139      
122      120      79      119      
119      120      116      122      
122      116      119      124      
122      120      116      124      
79      119      120      105      
79      122      119      139      
79      119      105      139      
116      120      93      51      
116      120      114      130      
79      96      120      138      
96      114      120      130      
116      124      120      130      
122      120      124      142      
119      124      116      125      
122      124      119      126      
119      124      125      126      
116      125      124      130      
126      122      124      146      
126      119      122      139      
126      125      119      132      
126      124      125      123      
127      124      128      146      
128      124      127      129      
129      128      124      142      
129      127      128      133      
129      124      127      144      
125      124      130      143      
125      130      116      131      
96      130      120      142      
114      130      96      83      
120      130      124      142      
116      130      97      131      
84      131      112      145      
100      131      84      125      
99      131      100      111      
100      131      125      91      
84      125      131      145      
84      100      125      147      
112      131      82      145      
99      82      131      74      
82      131      97      145      
116      131      94      125      
97      131      130      145      
94      125      131      91      
125      130      131      145      
91      131      94      111      
125      100      91      132      
94      91      111      136      
87      132      100      147      
91      132      119      125      
110      119      132      126      
110      132      91      141      
126      110      119      139      
126      125      132      98      
125      100      132      147      
125      132      98      147      
126      125      98      123      
53      134      92      137      
73      134      53      90      
93      135      43      148      
67      135      93      78      
78      135      93      136      
53      108      135      137      
43      135      108      148      
47      44      135      55      
53      135      78      136      
93      136      135      137      
78      136      93      94      
78      136      90      53      
53      136      90      137      
53      135      136      137      
90      136      109      137      
109      136      93      137      
90      53      137      134      
108      135      137      148      
93      137      135      148      
109      137      93      148      
63      108      137      148      
96      120      138      142      
121      138      122      128      
128      122      121      146      
128      138      122      142      
122      138      120      142      
104      139      107      117      
122      139      121      146      
89      140      141      118      
141      140      89      110      
101      141      91      132      
124      142      130      143      
128      142      122      124      
128      124      122      146      
129      142      124      143      
124      143      123      129      
123      143      124      125      
125      123      143      145      
125      143      130      145      
123      124      129      144      
123      124      144      126      
126      124      144      127      
84      125      145      147      
84      145      112      85      
85      84      145      147      
125      123      145      147      
139      146      122      126      
126      146      124      127      
98      123      125      147      
87      132      147      88      
132      147      88      98      
98      147      88      86      
88      147      87      86      
98      147      86      85      
98      147      85      123      
123      147      85      145      
30      7       5      30      
5      7       2      5      
4      58       1      4      
4      1       2      4      
2      1       5      2      
30      5       49      30      
30      49       77      30      
1      58       55      1      
55      58       54      55      
5      1       55      5      
49      5       55      49      
55      54       44      55      
44      54       64      44      
77      49       50      77      
44      64       42      44      
55      44       47      55      
55      47       49      55      
50      49       47      50      
47      44       45      47      
45      44       42      45      
50      47       52      50      
52      47       45      52      
45      42       41      45      
41      40       36      41      
52      45       38      52      
52      38       71      52      
38      45       41      38      
41      36       38      41      
7      31       6      7      
7      6       2      7      
3      4       2      3      
3      2       6      3      
6      31       12      6      