title = " tecplot file for process Mesh " 
variables = "x",  "y", "z", "cell_type" 
zone N = 154 E = 711 DATAPACKING = BLOCK,  VARLOCATION = ([4]=CELLCENTERED), ZONETYPE=FETETRAHEDRON 
-3.404604e-01     
-4.000000e-01     -3.381638e-01     -3.000000e-01     -4.175553e-01     -5.000000e-01     
-5.000000e-01     -5.000000e-01     -2.373131e-01     -2.342654e-01     -2.000000e-01     
-4.174345e-01     -5.000000e-01     -5.000000e-01     -5.000000e-01     -5.000000e-01     
-5.000000e-01     -4.193405e-01     -5.000000e-01     -5.000000e-01     -1.373099e-01     
-1.336076e-01     -1.000000e-01     -4.301340e-01     -5.000000e-01     -5.000000e-01     
-4.172115e-01     -4.139072e-01     -5.000000e-01     -5.000000e-01     -4.310226e-01     
-2.280614e-01     -2.218774e-01     -2.606534e-01     -1.707134e-01     -3.952441e-01     
-1.578482e-01     -1.840360e-01     -1.544154e-01     -2.398445e-01     -3.870824e-01     
-3.299054e-01     -1.126532e-01     -1.661876e-01     -2.973002e-01     -3.243758e-01     
-3.838672e-01     -5.000000e-01     -5.000000e-01     -7.702763e-02     -6.448521e-02     
2.404603e-02     -3.299005e-02     -7.705043e-02     -1.286284e-01     -1.544193e-01     
-2.941142e-01     -2.219904e-03     -5.978610e-02     -5.899501e-02     -1.321488e-03     
-5.000000e-01     -4.046798e-01     -5.000000e-01     -5.000000e-01     -4.171720e-01     
-3.350561e-01     -3.331898e-01     -4.171813e-01     -5.000000e-01     -5.000000e-01     
-4.129813e-01     -5.000000e-01     -5.000000e-01     -4.093138e-01     -5.000000e-01     
-4.012287e-01     -2.372702e-01     -2.794365e-01     -2.659833e-01     -1.720731e-01     
-2.228654e-01     -2.592530e-01     -3.093621e-01     -3.356435e-01     -3.014557e-01     
-1.577996e-01     -2.357043e-01     -1.455835e-01     2.298208e-02     -8.249390e-02     
1.821804e-02     -4.291523e-01     -4.048229e-01     -4.090414e-01     -3.882388e-01     
-4.199913e-01     -5.000000e-01     -3.352787e-01     -2.073977e-01     -2.171179e-01     
-3.195370e-01     -3.846262e-01     -1.993978e-01     -1.242364e-01     -1.777137e-01     
-3.532096e-01     -3.001219e-01     -2.192257e-01     -1.508407e-01     -2.885194e-01     
-3.108277e-01     -2.504506e-01     -3.068360e-01     -2.187474e-01     -9.169678e-02     
-7.259330e-02     -1.247503e-01     -2.958604e-01     -3.232901e-01     -1.728598e-01     
-1.074120e-01     -2.143522e-01     -2.195652e-01     -1.592612e-01     -1.874493e-01     
-1.235899e-01     -1.123977e-01     -3.249335e-01     -3.133363e-01     -3.190908e-01     
-3.315409e-01     -2.234484e-01     -2.707177e-01     -1.231269e-01     -1.566757e-01     
-2.466631e-01     -1.342607e-01     -2.594341e-01     -2.688934e-01     -8.906240e-02     
-4.701431e-02     -2.328602e-01     -2.095044e-01     -1.295475e-01     -1.372274e-01     
-3.165824e-02     -1.979535e-02     -1.170894e-01     -1.504259e-01     -1.471830e-02     
-8.826555e-02     -1.600410e-01     -2.346084e-01     
4.022555e-01     
5.000000e-01     5.000000e-01     5.000000e-01     1.440526e-01     1.370172e-01     
2.000000e-01     1.000000e-01     4.136222e-01     5.000000e-01     5.000000e-01     
5.000000e-01     5.000000e-01     3.988263e-01     5.000000e-01     3.000000e-01     
3.398221e-01     3.431352e-01     4.000000e-01     4.281127e-01     4.135794e-01     
5.000000e-01     5.000000e-01     5.000000e-01     5.000000e-01     2.384145e-01     
2.439914e-01     5.000000e-01     4.102224e-01     5.000000e-01     4.296031e-01     
5.000000e-01     4.117052e-01     5.000000e-01     5.000000e-01     4.192679e-01     
5.000000e-01     4.139662e-01     5.000000e-01     5.000000e-01     4.195935e-01     
5.000000e-01     5.000000e-01     4.153015e-01     4.178582e-01     5.000000e-01     
4.184441e-01     4.105989e-01     3.190682e-01     4.098804e-01     5.000000e-01     
4.053658e-01     5.000000e-01     5.000000e-01     4.004149e-01     5.000000e-01     
4.061553e-01     5.000000e-01     4.098295e-01     5.000000e-01     4.034381e-01     
2.253119e-01     2.782176e-01     2.828253e-01     3.265156e-01     2.870207e-01     
2.906836e-01     1.874109e-01     1.828131e-01     1.730076e-01     2.279456e-01     
2.001833e-01     1.472925e-01     2.320153e-01     2.609036e-01     3.227500e-01     
1.111513e-01     2.365756e-01     2.868406e-01     3.332626e-01     1.467428e-01     
1.732658e-01     1.364789e-01     1.324116e-01     7.334503e-02     4.115051e-01     
4.170082e-01     3.448426e-01     4.127330e-01     4.202925e-01     4.029161e-01     
5.000000e-01     3.473591e-01     1.368977e-01     1.018513e-01     3.096416e-01     
1.885479e-01     1.075666e-01     2.353282e-01     7.716463e-02     4.358733e-02     
4.286206e-02     9.940011e-02     2.550259e-01     2.378456e-01     3.258750e-01     
3.385218e-01     3.438568e-01     3.525965e-01     2.813972e-01     3.111055e-01     
3.339733e-01     3.899031e-01     2.230292e-01     3.546374e-01     3.546533e-01     
3.250863e-01     2.972227e-01     1.426313e-01     3.153785e-01     1.322244e-01     
5.526841e-02     7.034472e-02     2.656519e-01     3.034090e-01     1.874650e-01     
2.798383e-01     3.536054e-01     4.629024e-02     1.318267e-01     1.960923e-01     
2.397362e-01     1.567025e-01     6.984407e-02     1.816885e-01     2.329137e-01     
2.135838e-01     1.714818e-01     1.197064e-02     2.717184e-01     2.243280e-01     
3.464004e-01     1.794806e-01     8.959515e-02     1.139759e-01     2.967240e-02     
9.773667e-02     2.005905e-01     1.427798e-01     1.972467e-01     1.290992e-01     
4.389286e-01     3.322039e-01     2.948296e-01     
-5.000000e-01     
-5.000000e-01     -4.027361e-01     -5.000000e-01     -5.000000e-01     -4.174195e-01     
-5.000000e-01     -5.000000e-01     -5.000000e-01     -4.138855e-01     -5.000000e-01     
-3.436373e-01     -4.000000e-01     -3.382150e-01     -3.000000e-01     -5.000000e-01     
-4.174615e-01     -5.000000e-01     -5.000000e-01     -4.300104e-01     -5.000000e-01     
-4.136191e-01     -5.000000e-01     -4.297294e-01     -5.000000e-01     -4.147736e-01     
-5.000000e-01     -2.452230e-01     -2.344304e-01     -2.000000e-01     -5.000000e-01     
-2.390701e-01     -3.582186e-01     -3.343784e-01     -3.263920e-01     -3.920343e-01     
-1.627100e-01     -1.213704e-01     -6.985983e-02     -1.315413e-01     -2.937346e-01     
-2.923435e-01     -2.373861e-01     -2.130554e-01     -1.380406e-01     -1.915644e-01     
-1.942987e-01     -1.337883e-01     -1.710999e-01     -3.859875e-01     -3.275702e-01     
-3.962878e-01     -4.167731e-01     -2.779790e-02     -1.518372e-02     5.210656e-02     
-2.409927e-01     -2.366291e-01     -2.671951e-01     -1.328848e-01     -1.709137e-01     
-2.290687e-01     -2.736084e-01     -3.306616e-01     -2.610949e-01     -3.876322e-01     
-5.000000e-01     -5.000000e-01     -3.866538e-01     -3.277683e-01     -1.117702e-01     
-1.657678e-01     -1.564646e-01     -7.773377e-04     -5.895842e-02     -6.432774e-02     
-3.041262e-01     -5.000000e-01     -4.176479e-01     -5.000000e-01     -5.000000e-01     
-4.093704e-01     -5.000000e-01     -4.068440e-01     -5.000000e-01     -4.124435e-01     
-4.160523e-01     -1.800250e-01     -3.042047e-01     -3.056513e-01     -1.073510e-01     
-4.427509e-02     -3.236253e-01     -8.658382e-02     -1.819551e-01     -1.671312e-01     
-2.571999e-01     -2.425956e-01     -3.425590e-01     -4.091550e-01     -5.000000e-01     
-4.162048e-01     -4.336902e-01     -4.245586e-01     -5.000000e-01     -5.000000e-01     
-4.254589e-01     -3.286454e-01     -4.253585e-01     -8.719599e-02     -6.285127e-02     
-1.416691e-01     -6.931173e-02     -2.235383e-01     -2.757137e-01     -1.924303e-01     
-3.260200e-01     -4.139142e-01     -2.980134e-01     -2.406454e-01     -3.175967e-01     
-2.669173e-01     -2.335928e-01     -2.351191e-01     -1.713404e-01     -1.750036e-01     
-2.475486e-01     -2.665914e-01     -2.333918e-01     -1.823315e-01     -4.586274e-02     
-1.314071e-01     -2.495125e-01     -3.451845e-01     -2.489276e-01     -3.332785e-01     
-3.300617e-01     -3.651423e-01     -1.635886e-01     -1.714648e-01     -1.536799e-01     
-1.358555e-01     -8.880661e-02     -1.264903e-01     -7.257091e-02     -1.593557e-01     
-7.657097e-02     -9.002747e-02     -1.528913e-01     -9.718431e-02     -1.549413e-01     
-1.838818e-01     -3.381193e-01     -3.471793e-01     

0      
0      0      0      0      0      0      0      0      0      0      
0      0      0      0      0      0      0      0      0      0      
0      0      0      0      0      0      0      0      0      0      
0      0      0      0      0      0      0      0      0      0      
0      0      0      0      0      0      0      0      0      0      
0      0      0      0      0      0      0      0      0      0      
0      0      0      0      0      0      0      0      0      0      
0      0      0      0      0      0      0      0      0      0      
0      0      0      0      0      0      0      0      0      0      
0      0      0      0      0      0      0      0      0      0      
0      0      0      0      0      0      0      0      0      0      
0      0      0      0      0      0      0      0      0      0      
0      0      0      0      0      0      0      0      0      0      
0      0      0      0      0      0      0      0      0      0      
0      0      0      0      0      0      0      0      0      0      
0      0      0      0      0      0      0      0      0      0      
0      0      0      0      0      0      0      0      0      0      
0      0      0      0      0      0      0      0      0      0      
0      0      0      0      0      0      0      0      0      0      
0      0      0      0      0      0      0      0      0      0      
0      0      0      0      0      0      0      0      0      0      
0      0      0      0      0      0      0      0      0      0      
0      0      0      0      0      0      0      0      0      0      
0      0      0      0      0      0      0      0      0      0      
0      0      0      0      0      0      0      0      0      0      
0      0      0      0      0      0      0      0      0      0      
0      0      0      0      0      0      0      0      0      0      
0      0      0      0      0      0      0      0      0      0      
0      0      0      0      0      0      0      0      0      0      
0      0      0      0      0      0      0      0      0      0      
0      0      0      0      0      0      0      0      0      0      
0      0      0      0      0      0      0      0      0      0      
0      0      0      0      0      0      0      0      0      0      
0      0      0      0      0      0      0      0      0      0      
0      0      0      0      0      0      0      0      0      0      
0      0      0      0      0      0      0      0      0      0      
0      0      0      0      0      0      0      0      0      0      
0      0      0      0      0      0      0      0      0      0      
0      0      0      0      0      0      0      0      0      0      
0      0      0      0      0      0      0      0      0      0      
0      0      0      0      0      0      0      0      0      0      
0      0      0      0      0      0      0      0      0      0      
0      0      0      0      0      0      0      0      0      0      
0      0      0      0      0      0      0      0      0      0      
0      0      0      0      0      0      0      0      0      0      
0      0      0      0      0      0      0      0      0      0      
0      0      0      0      0      0      1      1      1      1      
1      1      1      1      1      1      1      1      1      1      
1      1      1      1      1      1      1      1      1      1      
1      1      1      1      1      1      1      1      1      1      
1      1      1      1      1      1      1      1      1      1      
1      1      1      1      1      1      1      1      1      1      
1      1      1      1      1      1      1      1      1      1      
1      1      1      1      1      1      1      1      1      1      
1      1      1      1      1      1      1      1      1      1      
1      1      1      1      1      1      1      1      1      1      
1      1      1      1      1      1      1      1      1      1      
1      1      1      1      1      1      1      1      1      1      
1      1      1      1      1      1      1      1      1      1      
1      1      1      1      1      1      1      1      1      1      
1      1      1      1      1      1      1      1      1      1      
1      1      1      1      1      1      1      1      1      1      
1      1      1      1      1      1      1      1      1      1      
1      1      1      1      1      1      1      1      1      1      
1      1      1      1      1      1      1      1      1      1      
1      1      1      1      1      1      1      1      1      1      
1      1      1      1      1      1      1      1      1      1      
1      1      1      1      1      1      1      1      1      1      
1      1      1      1      1      1      1      1      1      1      
1      1      1      1      1      1      1      1      1      1      
1      1      1      1      1      1      1      1      1      1      


1      2      3      36      
3      2      1      4      
1      3      4      86      
5      6      7      69      
7      6      5      8      
5      8      6      103      
9      4      10      86      
10      4      9      11      
9      10      11      87      
12      13      14      36      
14      13      12      15      
12      14      15      41      
16      17      18      66      
18      17      16      19      
19      18      17      20      
18      17      20      36      
19      18      20      31      
21      11      22      87      
22      11      21      23      
21      22      23      50      
20      24      25      31      
25      24      20      13      
20      13      24      36      
7      26      27      69      
27      26      7      16      
16      27      26      66      
28      15      29      41      
29      15      28      30      
28      29      30      47      
20      31      18      36      
19      31      20      25      
25      31      24      2      
20      24      31      36      
2      31      24      36      
32      33      34      57      
34      33      32      35      
35      34      33      10      
35      33      32      89      
34      33      10      86      
35      10      33      87      
17      36      18      107      
20      36      17      14      
14      20      36      13      
14      36      17      93      
12      36      14      41      
13      36      12      24      
24      36      12      3      
2      36      1      31      
31      36      1      18      
24      2      36      3      
1      36      3      86      
3      36      12      41      
18      36      1      107      
37      38      39      91      
39      38      37      40      
40      39      38      113      
40      38      37      44      
14      41      36      93      
42      41      28      47      
28      41      42      12      
12      28      41      15      
12      41      42      3      
3      41      42      86      
3      36      41      86      
15      41      14      29      
28      41      29      47      
29      41      14      93      
43      44      37      152      
37      44      43      32      
32      37      44      40      
32      44      43      89      
32      40      44      45      
37      44      38      152      
40      38      44      45      
40      45      32      46      
46      45      32      57      
32      45      44      57      
38      44      45      88      
38      45      40      113      
42      47      46      57      
46      47      42      28      
41      47      42      57      
29      47      41      93      
30      47      29      48      
48      47      29      49      
49      47      29      65      
35      50      22      87      
22      50      35      51      
51      22      50      53      
51      50      35      89      
53      22      50      23      
53      50      51      52      
52      50      51      90      
21      22      50      87      
39      55      54      91      
54      55      39      56      
32      46      57      42      
32      42      57      34      
47      57      41      120      
42      41      57      108      
34      42      57      108      
33      57      32      115      
34      57      33      108      
44      32      57      115      
44      57      45      88      
58      59      43      152      
43      59      58      51      
51      43      59      89      
51      59      58      90      
62      63      64      97      
64      63      62      65      
65      64      63      93      
65      63      62      96      
64      66      26      69      
26      66      64      17      
17      26      66      16      
17      66      64      93      
26      66      27      69      
16      27      66      18      
27      66      18      67      
18      66      17      107      
27      66      67      68      
68      27      66      69      
68      66      67      79      
66      69      63      99      
63      69      66      64      
64      63      69      97      
64      66      63      93      
64      69      70      97      
70      69      64      26      
26      70      69      6      
70      69      6      77      
26      6      69      7      
27      69      68      5      
5      27      69      7      
5      69      68      103      
68      69      66      99      
6      69      5      103      
71      72      73      94      
73      72      71      62      
62      73      72      97      
62      72      71      96      
74      75      71      94      
71      75      74      76      
76      71      75      96      
69      77      70      97      
6      77      69      103      
78      79      80      104      
80      79      78      67      
67      80      79      107      
67      79      78      68      
68      79      78      82      
81      82      78      104      
78      82      81      83      
83      78      82      68      
83      82      81      100      
83      68      82      84      
79      82      68      99      
78      82      79      104      
68      84      83      85      
85      68      84      103      
85      84      83      102      
82      84      68      99      
83      84      82      100      
36      86      1      107      
3      86      42      34      
34      3      86      10      
34      86      42      108      
42      86      41      108      
36      41      86      108      
80      86      9      109      
9      86      80      1      
1      9      86      4      
1      86      80      107      
10      3      86      4      
33      86      34      108      
10      86      33      9      
9      33      10      87      
9      86      33      109      
21      87      50      118      
9      33      87      109      
11      87      21      9      
9      87      21      109      
11      87      10      22      
22      87      10      35      
35      87      33      89      
38      88      45      113      
44      88      38      125      
57      88      44      115      
45      88      57      112      
33      89      87      153      
35      87      89      50      
51      50      89      59      
51      89      35      43      
50      59      51      90      
50      89      59      117      
43      89      35      32      
43      59      89      44      
59      89      44      128      
43      59      44      152      
44      89      32      115      
32      89      33      115      
90      59      58      61      
58      61      59      152      
52      50      90      117      
50      59      90      117      
60      91      39      54      
39      91      60      37      
37      91      60      152      
38      91      37      152      
39      91      38      55      
55      91      38      110      
39      55      38      113      
54      60      91      92      
63      93      66      108      
14      93      64      65      
64      93      14      17      
66      93      17      107      
17      93      36      107      
65      14      93      29      
65      93      63      47      
36      93      41      108      
47      93      63      120      
65      47      63      96      
65      93      47      29      
41      93      47      120      
71      94      75      72      
72      75      71      96      
72      94      75      132      
73      94      72      95      
95      72      73      97      
95      94      72      130      
72      96      62      63      
63      72      96      114      
63      62      72      97      
63      96      47      120      
65      47      96      49      
72      75      96      132      
63      97      72      114      
77      97      69      119      
95      72      97      130      
62      97      98      73      
98      97      62      70      
70      97      62      64      
63      99      97      114      
97      99      63      69      
69      97      99      119      
68      99      84      69      
69      84      68      103      
69      99      84      119      
68      99      66      79      
63      66      99      108      
82      100      84      134      
83      84      100      102      
83      100      81      101      
101      83      100      102      
83      102      101      85      
85      84      102      103      
84      100      102      134      
84      103      69      77      
77      84      103      102      
77      69      84      119      
77      84      102      134      
5      103      68      85      
79      104      82      137      
78      104      105      81      
105      104      78      106      
106      104      78      80      
80      106      104      109      
80      104      79      109      
18      107      1      67      
86      107      36      108      
66      107      18      67      
66      107      79      108      
79      107      66      67      
79      107      80      86      
67      80      107      1      
79      107      86      108      
80      79      86      109      
107      108      66      93      
93      107      108      36      
63      93      108      120      
99      108      66      79      
63      108      99      120      
41      108      93      120      
57      108      41      120      
33      108      57      115      
33      86      108      109      
86      79      108      109      
33      109      108      154      
79      108      109      154      
9      80      109      106      
33      87      109      153      
9      106      109      21      
21      109      87      118      
79      109      104      154      
38      110      91      125      
55      110      38      113      
88      112      45      113      
57      112      88      120      
112      113      88      111      
88      111      113      110      
88      112      111      140      
88      113      38      110      
38      88      110      125      
88      111      110      140      
63      114      96      120      
72      96      114      132      
72      114      97      130      
97      114      99      119      
63      99      114      120      
108      115      33      154      
57      115      108      120      
33      115      89      153      
44      89      115      128      
88      115      57      120      
44      115      88      125      
89      117      50      153      
59      117      89      128      
114      119      97      130      
99      119      114      137      
77      119      84      134      
84      119      99      82      
96      120      114      140      
99      120      108      154      
99      114      120      137      
112      120      57      47      
88      120      112      140      
115      120      88      124      
108      120      115      154      
112      120      47      96      
96      112      120      140      
120      124      115      154      
88      115      124      125      
88      124      120      140      
110      125      88      140      
44      125      38      116      
116      125      38      91      
44      116      38      152      
44      125      116      128      
91      125      110      142      
116      125      91      142      
38      116      91      152      
124      125      126      140      
126      125      124      127      
127      126      125      141      
127      124      126      135      
127      125      124      115      
115      125      44      128      
115      127      125      128      
115      124      127      153      
88      125      124      140      
116      44      128      59      
116      128      125      127      
127      125      116      141      
127      128      115      153      
89      115      128      153      
89      128      117      153      
72      130      94      132      
95      130      97      77      
72      114      130      132      
97      130      119      77      
114      119      130      133      
77      95      130      129      
77      130      119      129      
129      130      119      123      
77      129      119      134      
123      130      119      133      
129      123      119      134      
129      130      123      139      
96      114      132      140      
130      132      114      140      
94      132      130      131      
131      132      130      143      
75      96      132      112      
112      132      75      111      
111      112      132      140      
96      132      112      140      
130      133      123      144      
119      123      133      121      
126      133      130      144      
130      133      126      114      
114      126      130      140      
114      133      126      124      
119      133      114      137      
114      133      124      137      
126      124      133      135      
126      114      124      140      
119      134      123      121      
121      134      82      119      
82      134      121      100      
82      119      134      84      
82      121      119      137      
123      135      122      149      
122      135      123      121      
121      135      123      133      
133      135      123      149      
121      135      133      136      
136      135      133      124      
121      136      133      137      
124      135      127      136      
136      127      124      153      
136      124      133      137      
127      135      126      141      
126      135      133      149      
121      136      137      138      
121      137      133      119      
136      124      137      154      
114      137      124      120      
119      137      99      82      
99      137      120      154      
120      124      114      140      
120      137      124      154      
82      137      99      79      
79      137      99      154      
104      137      79      154      
82      137      104      138      
82      121      137      138      
137      138      136      104      
123      139      130      144      
130      140      126      143      
132      140      130      143      
125      140      110      126      
126      110      125      141      
126      140      110      143      
126      141      135      149      
116      141      125      142      
125      142      141      110      
126      143      110      150      
126      130      143      144      
126      144      143      150      
133      144      126      149      
123      144      133      149      
145      149      148      150      
148      149      145      147      
147      148      149      151      
147      149      145      146      
145      144      149      150      
149      144      145      146      
141      149      126      150      
148      150      149      141      
148      141      149      151      
143      150      144      145      
144      149      150      126      
126      150      110      141      
118      109      87      153      
50      118      87      153      
50      87      89      153      
96      71      49      76      
49      71      96      62      
62      96      49      65      
99      108      79      154      
137      104      136      154      
61      152      91      116      
91      152      61      60      
60      152      61      58      
61      152      116      59      
59      152      116      44      
60      152      58      43      
60      152      43      37      
115      124      153      154      
136      153      124      154      
33      153      109      154      
50      118      153      117      
33      115      153      154      
109      154      153      104      
153      154      136      104      
1      2       4      1      
6      7       8      6      
7      5       8      7      
9      4       11      9      
13      14       15      13      
17      19       16      17      
19      18       16      19      
20      19       17      20      
21      11       23      21      
13      25       20      13      
26      16       7      26      
16      27       7      16      
15      29       30      15      
19      31       18      19      