title = " tecplot file for process Mesh " 
variables = "x",  "y", "z", "cell_type" 
zone N = 156 E = 718 DATAPACKING = BLOCK,  VARLOCATION = ([4]=CELLCENTERED), ZONETYPE=FETETRAHEDRON 
2.326277e-01     
3.000000e-01     2.468201e-01     2.000000e-01     5.080864e-02     -3.540247e-02     
4.917966e-02     0.000000e+00     1.000000e-01     1.332320e-01     1.489808e-01     
5.000000e-01     4.032532e-01     5.000000e-01     5.000000e-01     4.138776e-01     
5.000000e-01     5.000000e-01     5.000000e-01     4.129854e-01     5.000000e-01     
3.444150e-01     4.295167e-01     4.300614e-01     4.000000e-01     4.128369e-01     
5.000000e-01     5.000000e-01     5.000000e-01     5.000000e-01     4.145841e-01     
-4.722246e-02     -1.000000e-01     5.000000e-01     4.157591e-01     5.000000e-01     
5.000000e-01     5.000000e-01     4.163453e-01     3.368256e-01     5.000000e-01     
5.000000e-01     5.000000e-01     4.106917e-01     5.000000e-01     4.213862e-01     
4.245291e-01     5.000000e-01     4.235157e-01     4.208522e-01     4.303613e-01     
5.000000e-01     5.000000e-01     4.037152e-01     4.198511e-01     3.254416e-01     
4.096621e-01     2.179737e-01     1.641138e-01     2.571796e-01     7.682920e-02     
4.807595e-02     2.233532e-01     2.693724e-01     3.275843e-01     1.501960e-01     
1.038279e-01     1.014158e-01     -9.600407e-03     2.351653e-01     2.977917e-01     
3.230947e-01     3.351150e-01     1.355498e-01     9.603820e-02     1.950377e-01     
9.913592e-02     4.852548e-03     2.752018e-02     7.124845e-02     1.312488e-01     
5.497633e-02     6.042708e-02     7.029767e-02     1.303272e-01     2.558951e-02     
5.775749e-02     3.348266e-01     2.894323e-01     2.937652e-01     2.397050e-01     
1.477181e-01     1.781592e-01     1.592226e-01     1.749584e-01     2.318402e-01     
2.353253e-01     1.741537e-01     7.451989e-03     2.955133e-01     3.257731e-01     
4.108916e-01     3.657682e-01     4.164252e-01     4.191087e-01     4.127968e-01     
3.147205e-01     1.987211e-01     1.742860e-01     1.016471e-01     3.797276e-01     
7.343925e-04     1.734785e-01     8.497506e-02     -4.205179e-02     2.608432e-01     
3.129668e-01     3.371435e-01     3.566587e-01     3.462075e-01     2.385831e-01     
2.825846e-01     1.761356e-01     9.417713e-02     -4.722636e-02     3.063264e-01     
3.542714e-01     3.138869e-01     2.550536e-01     3.571105e-01     3.377007e-01     
2.833963e-01     2.691185e-01     2.888664e-01     1.826480e-01     1.706483e-01     
-2.636471e-02     2.332139e-01     2.322446e-01     3.918877e-02     9.265160e-02     
2.109819e-01     1.156640e-01     3.342766e-01     4.192457e-01     2.349369e-01     
2.447976e-01     1.016838e-01     2.496945e-01     1.062512e-01     3.612759e-01     
2.363186e-01     2.739562e-01     2.626427e-01     1.856247e-01     1.918974e-01     

-5.000000e-01     
-5.000000e-01     -4.161305e-01     -5.000000e-01     -4.172929e-01     -5.000000e-01     
-5.000000e-01     -5.000000e-01     -5.000000e-01     -5.000000e-01     -4.166559e-01     
-3.377257e-01     -3.394736e-01     -4.000000e-01     -3.000000e-01     -2.358569e-01     
-2.336705e-01     -2.000000e-01     -1.328526e-01     -1.355658e-01     -1.000000e-01     
-4.186515e-01     -5.000000e-01     -4.306907e-01     -5.000000e-01     -5.000000e-01     
-4.146039e-01     -5.000000e-01     -4.161818e-01     -5.000000e-01     -5.000000e-01     
-4.148621e-01     -5.000000e-01     0.000000e+00     -3.538671e-02     -3.199024e-02     
-4.172851e-01     -5.000000e-01     -5.000000e-01     -5.000000e-01     -4.299545e-01     
-5.000000e-01     -2.596206e-01     -2.208650e-01     -1.693040e-01     -3.949884e-01     
2.544020e-02     -6.244155e-02     -3.650669e-01     -3.599188e-01     -2.840612e-01     
-3.266578e-01     -3.294742e-01     -2.718085e-01     -3.871211e-01     -6.876026e-02     
-7.576147e-02     -4.098891e-01     -5.000000e-01     -5.000000e-01     -4.238832e-01     
-5.000000e-01     -5.000000e-01     -4.145036e-01     -5.000000e-01     -5.000000e-01     
-5.000000e-01     -4.061212e-01     -4.042089e-01     -5.000000e-01     -4.003213e-01     
-5.000000e-01     -5.000000e-01     -2.490832e-01     -2.829525e-01     -3.295884e-01     
-3.361127e-01     -3.335169e-01     6.226325e-02     3.541531e-02     5.237629e-02     
-8.393598e-03     1.440632e-01     -5.278798e-02     -7.042014e-02     -7.955021e-02     
-1.695197e-01     -2.636171e-01     -2.766669e-01     -3.329440e-01     -2.334396e-01     
-3.607857e-01     -2.165849e-01     -1.672319e-01     -1.189586e-01     -8.104138e-03     
-1.192238e-01     1.032071e-01     -1.273732e-01     -1.208096e-01     -1.744448e-01     
-3.006659e-01     -4.140831e-01     -1.573658e-01     -2.898473e-01     -1.369053e-01     
-3.953080e-01     -4.032024e-01     -4.098718e-01     -4.001285e-01     -4.308062e-01     
-3.722498e-01     -7.621675e-03     -1.867729e-01     -1.038295e-02     -1.980784e-01     
-8.887055e-03     4.820785e-02     -3.337644e-01     -4.233905e-01     -3.507507e-01     
-3.715318e-01     -2.955734e-01     -1.080759e-01     -6.048886e-03     -9.604617e-02     
-1.913940e-01     -2.066715e-01     -1.914807e-01     -3.383362e-01     -3.077736e-01     
-3.924305e-01     -3.200275e-01     -3.071629e-01     -3.764987e-01     -1.757973e-01     
-9.755535e-02     -2.411437e-01     -3.458726e-02     -3.721965e-02     -3.229198e-01     
-2.649112e-01     -3.183128e-01     -2.652752e-01     -3.621987e-01     -4.055738e-01     
-2.788453e-01     -1.889891e-01     -1.474767e-01     -2.351143e-01     -3.404361e-01     
-3.938057e-01     -3.265220e-01     -3.426203e-01     -3.464308e-01     -1.007829e-01     

4.129527e-01     
5.000000e-01     5.000000e-01     5.000000e-01     5.000000e-01     4.167737e-01     
4.323314e-01     5.000000e-01     5.000000e-01     4.164449e-01     5.000000e-01     
4.017828e-01     5.000000e-01     5.000000e-01     5.000000e-01     5.000000e-01     
4.128163e-01     5.000000e-01     4.131198e-01     5.000000e-01     5.000000e-01     
5.000000e-01     4.284600e-01     5.000000e-01     5.000000e-01     2.393573e-01     
2.449809e-01     2.000000e-01     1.469166e-01     3.000000e-01     1.376871e-01     
5.000000e-01     5.000000e-01     5.000000e-01     5.000000e-01     4.168623e-01     
3.431063e-01     4.000000e-01     3.405798e-01     4.000993e-01     4.294241e-01     
5.000000e-01     3.317514e-01     3.563160e-01     3.243804e-01     3.914377e-01     
3.965849e-01     3.277753e-01     4.740398e-02     1.437621e-01     8.771642e-02     
1.903806e-01     2.904800e-01     2.851830e-01     2.928557e-01     5.000000e-01     
3.859192e-01     3.565691e-01     3.264322e-01     3.303222e-01     3.959635e-01     
3.391143e-01     2.312251e-01     2.822506e-01     2.852043e-01     1.568161e-01     
2.390307e-01     1.777201e-01     3.008586e-01     1.123584e-01     1.139868e-01     
1.755449e-01     5.405715e-02     5.000000e-01     4.229714e-01     5.000000e-01     
5.000000e-01     5.000000e-01     5.000000e-01     4.149221e-01     5.000000e-01     
5.000000e-01     5.000000e-01     4.203130e-01     5.000000e-01     5.000000e-01     
5.000000e-01     5.000000e-01     4.075388e-01     5.000000e-01     5.000000e-01     
4.195762e-01     4.140038e-01     5.000000e-01     4.054611e-01     5.000000e-01     
5.000000e-01     4.158851e-01     3.985726e-01     4.137085e-01     5.000000e-01     
4.114413e-01     2.105416e-01     4.157073e-01     1.990905e-01     3.152914e-01     
3.998880e-01     2.091420e-01     1.100328e-01     2.894633e-01     9.123681e-02     
4.146318e-01     4.051746e-01     4.073860e-01     3.699597e-01     4.251290e-01     
3.819854e-01     5.000000e-01     3.403280e-01     3.232070e-01     4.227835e-01     
2.473656e-02     3.106343e-01     3.113153e-01     5.000000e-01     3.021365e-01     
2.524790e-01     3.421476e-01     2.641652e-01     2.531233e-01     1.200665e-01     
1.984327e-01     3.020448e-01     2.084386e-01     2.875744e-01     3.202302e-01     
2.826959e-01     3.498088e-01     3.289816e-01     3.344640e-01     3.396144e-01     
2.316646e-01     2.358952e-01     2.536369e-01     2.186620e-01     1.475814e-01     
1.350745e-01     2.219312e-01     3.442910e-01     3.358356e-01     1.805792e-01     
7.599875e-02     8.454107e-02     1.551217e-01     1.524600e-01     3.206679e-01     


0      
0      0      0      0      0      0      0      0      0      0      
0      0      0      0      0      0      0      0      0      0      
0      0      0      0      0      0      0      0      0      0      
0      0      0      0      0      0      0      0      0      0      
0      0      0      0      0      0      0      0      0      0      
0      0      0      0      0      0      0      0      0      0      
0      0      0      0      0      0      0      0      0      0      
0      0      0      0      0      0      0      0      0      0      
0      0      0      0      0      0      0      0      0      0      
0      0      0      0      0      0      0      0      0      0      
0      0      0      0      0      0      0      0      0      0      
0      0      0      0      0      0      0      0      0      0      
0      0      0      0      0      0      0      0      0      0      
0      0      0      0      0      0      0      0      0      0      
0      0      0      0      0      0      0      0      0      0      
0      0      0      0      0      0      0      0      0      0      
0      0      0      0      0      0      0      0      0      0      
0      0      0      0      0      0      0      0      0      0      
0      0      0      0      0      0      0      0      0      0      
0      0      0      0      0      0      0      0      0      0      
0      0      0      0      0      0      0      0      0      0      
0      0      0      0      0      0      0      0      0      0      
0      0      0      0      0      0      0      0      0      0      
0      0      0      0      0      0      0      0      0      0      
0      0      0      0      0      0      0      0      0      0      
0      0      0      0      0      0      0      0      0      0      
0      0      0      0      0      0      0      0      0      0      
0      0      0      0      0      0      0      0      0      0      
0      0      0      0      0      0      0      0      0      0      
0      0      0      0      0      0      0      0      0      0      
0      0      0      0      0      0      0      0      0      0      
0      0      0      0      0      0      0      0      0      0      
0      0      0      0      0      0      0      0      0      0      
0      0      0      0      0      0      0      0      0      0      
0      0      0      0      0      0      0      0      0      0      
0      0      0      0      0      0      0      0      0      0      
0      0      0      0      0      0      0      0      0      0      
0      0      0      0      0      0      0      0      0      0      
0      0      0      0      0      0      0      0      0      0      
0      0      0      0      0      0      0      0      0      0      
0      0      0      0      0      0      0      0      0      0      
0      0      0      0      0      0      0      0      0      0      
0      0      0      0      0      0      0      0      0      0      
0      0      0      0      0      0      0      0      0      0      
0      0      0      0      0      0      0      0      0      0      
0      0      0      0      0      0      0      0      0      0      
0      0      0      0      0      0      0      1      1      1      
1      1      1      1      1      1      1      1      1      1      
1      1      1      1      1      1      1      1      1      1      
1      1      1      1      1      1      1      1      1      1      
1      1      1      1      1      1      1      1      1      1      
1      1      1      1      1      1      1      1      1      1      
1      1      1      1      1      1      1      1      1      1      
1      1      1      1      1      1      1      1      1      1      
1      1      1      1      1      1      1      1      1      1      
1      1      1      1      1      1      1      1      1      1      
1      1      1      1      1      1      1      1      1      1      
1      1      1      1      1      1      1      1      1      1      
1      1      1      1      1      1      1      1      1      1      
1      1      1      1      1      1      1      1      1      1      
1      1      1      1      1      1      1      1      1      1      
1      1      1      1      1      1      1      1      1      1      
1      1      1      1      1      1      1      1      1      1      
1      1      1      1      1      1      1      1      1      1      
1      1      1      1      1      1      1      1      1      1      
1      1      1      1      1      1      1      1      1      1      
1      1      1      1      1      1      1      1      1      1      
1      1      1      1      1      1      1      1      1      1      
1      1      1      1      1      1      1      1      1      1      
1      1      1      1      1      1      1      1      1      1      
1      1      1      1      1      1      1      1      1      1      
1      1      1      1      1      1      1      

1      2      3      107      
3      2      1      4      
1      3      4      11      
5      6      7      61      
7      6      5      8      
5      8      6      32      
5      7      8      9      
9      5      7      61      
10      11      4      9      
4      11      10      1      
1      11      10      58      
1      3      11      121      
10      11      9      61      
12      13      14      46      
14      13      12      15      
12      15      13      102      
16      17      18      104      
18      17      16      15      
16      15      17      102      
19      20      18      104      
18      20      19      21      
19      21      20      57      
22      23      24      46      
24      23      22      25      
25      24      23      42      
25      23      22      40      
26      27      28      30      
28      27      26      29      
26      29      27      145      
26      28      29      31      
27      30      26      55      
26      31      29      103      
6      32      8      33      
5      32      6      112      
21      36      35      57      
35      36      21      34      
37      38      39      46      
39      38      37      30      
37      39      30      55      
2      40      22      107      
22      40      2      25      
22      40      23      46      
24      41      14      46      
14      41      24      42      
24      42      41      23      
23      42      41      38      
24      23      41      46      
23      38      41      46      
43      44      17      102      
17      44      43      45      
45      17      44      104      
45      44      43      54      
40      46      22      107      
23      46      40      39      
39      46      40      120      
23      46      39      38      
37      38      46      41      
37      46      39      55      
41      46      37      12      
12      41      46      14      
12      46      37      55      
24      46      14      13      
24      46      13      22      
12      13      46      102      
22      46      13      107      
44      54      45      106      
43      54      44      102      
53      55      27      145      
27      55      53      37      
37      27      55      30      
37      55      53      12      
39      55      46      120      
30      55      39      26      
27      55      26      145      
26      55      39      120      
56      57      35      117      
35      57      56      20      
20      35      57      21      
20      57      56      100      
36      47      57      48      
57      47      36      35      
36      57      19      48      
19      57      36      21      
20      19      57      104      
48      57      19      106      
11      58      1      121      
10      1      58      59      
10      58      11      92      
59      58      10      61      
1      58      59      60      
60      58      59      64      
1      58      60      107      
59      61      62      110      
62      61      59      10      
10      62      61      7      
10      61      58      92      
59      58      61      110      
62      61      6      69      
6      61      62      7      
10      7      61      9      
9      5      61      11      
10      11      61      92      
5      61      11      77      
63      64      60      59      
60      64      63      65      
65      60      64      120      
65      64      63      132      
63      64      59      108      
59      64      58      135      
60      58      64      120      
61      69      62      110      
6      69      61      112      
70      71      72      146      
72      71      70      73      
73      72      71      111      
73      71      70      152      
74      75      76      93      
76      75      74      77      
77      76      75      92      
79      80      81      83      
81      80      79      82      
82      81      80      84      
82      80      79      115      
83      80      81      98      
81      84      82      85      
85      81      84      113      
85      84      82      86      
82      84      80      115      
81      80      84      113      
86      84      82      115      
85      84      86      87      
87      84      86      99      
85      84      87      114      
88      89      90      102      
90      89      88      91      
91      90      89      121      
91      89      88      116      
76      92      11      121      
11      92      76      77      
77      11      92      61      
77      92      75      61      
76      75      92      93      
11      92      58      121      
58      92      61      110      
76      93      92      121      
75      92      93      123      
94      93      91      116      
91      93      94      74      
74      91      93      76      
74      93      94      114      
91      93      76      121      
75      93      74      114      
85      95      96      113      
96      95      85      97      
97      96      95      100      
97      95      85      94      
94      95      85      114      
97      95      94      116      
81      98      80      113      
86      99      84      115      
87      84      99      114      
96      100      56      117      
56      100      96      97      
97      56      100      101      
95      100      96      113      
97      100      95      116      
101      56      100      20      
101      100      97      116      
20      100      101      104      
12      102      46      55      
13      46      102      107      
54      102      43      53      
44      102      54      119      
53      102      12      55      
12      102      53      43      
43      12      102      17      
54      102      53      55      
17      12      102      15      
17      102      44      16      
16      44      17      104      
16      102      44      88      
16      15      102      13      
13      102      16      88      
55      102      46      119      
88      102      90      13      
13      102      90      107      
89      102      88      44      
90      102      89      107      
89      102      44      119      
88      89      44      104      
88      44      16      104      
65      103      26      120      
26      103      65      72      
72      26      103      31      
72      103      65      132      
31      103      72      111      
29      103      31      111      
26      103      29      145      
57      104      19      106      
20      104      57      100      
17      104      45      19      
19      17      104      18      
19      104      45      106      
45      104      44      106      
101      20      104      16      
101      104      100      116      
44      104      89      128      
88      89      104      116      
88      104      101      116      
101      104      88      16      
16      20      104      18      
51      105      50      131      
50      105      51      52      
52      50      105      145      
54      106      44      128      
19      106      45      48      
104      106      57      100      
104      106      100      128      
57      100      106      126      
44      106      104      128      
89      107      102      119      
90      107      89      121      
22      107      13      90      
46      102      107      119      
90      22      107      3      
1      107      60      40      
40      1      107      2      
40      107      60      120      
60      107      58      120      
1      58      107      121      
3      22      107      2      
3      107      90      121      
1      107      3      121      
40      46      107      120      
67      108      63      59      
63      108      67      66      
66      63      108      146      
66      108      67      68      
67      68      108      110      
59      67      108      110      
92      110      58      135      
61      110      92      141      
58      110      59      135      
68      108      110      143      
110      62      59      67      
61      69      110      141      
72      111      103      71      
31      111      72      73      
71      111      103      151      
72      71      103      132      
50      111      49      131      
49      111      50      29      
29      111      50      103      
73      111      71      122      
75      112      77      61      
77      112      75      78      
78      77      112      5      
5      77      112      61      
5      112      78      32      
5      61      112      6      
61      112      69      141      
100      113      95      139      
96      113      100      117      
95      113      85      84      
96      85      113      81      
95      113      84      124      
85      95      84      114      
96      81      113      98      
84      113      80      140      
84      99      114      124      
87      85      114      94      
84      114      95      124      
87      94      114      74      
95      114      94      93      
93      95      114      136      
93      94      95      116      
75      93      114      150      
84      115      99      140      
80      115      84      140      
91      116      93      89      
89      93      91      121      
89      116      93      138      
95      116      100      149      
94      97      116      91      
93      116      95      149      
97      116      91      101      
101      116      91      88      
100      116      104      128      
56      117      100      57      
96      117      56      118      
57      117      100      126      
100      117      113      139      
102      119      55      54      
46      55      119      120      
46      119      107      120      
89      107      119      133      
89      119      44      128      
44      119      54      128      
119      120      55      130      
107      120      119      133      
39      120      40      65      
65      39      120      26      
65      120      40      60      
65      120      64      103      
58      64      120      133      
58      120      107      133      
55      120      26      103      
55      103      26      145      
55      120      103      130      
64      103      120      130      
64      65      103      132      
89      121      107      133      
3      121      90      76      
76      3      121      11      
76      121      90      91      
89      93      121      138      
92      121      93      123      
58      107      121      133      
71      73      122      152      
71      122      111      131      
75      123      93      150      
92      123      75      141      
121      123      92      58      
58      121      123      133      
58      123      92      135      
93      123      121      138      
84      124      113      140      
95      113      124      156      
95      124      114      136      
84      99      124      140      
100      106      126      128      
100      126      117      139      
127      128      126      106      
126      128      127      129      
129      126      128      149      
129      128      127      144      
127      128      106      54      
100      128      126      149      
116      128      100      149      
104      128      116      89      
89      119      128      133      
54      128      119      144      
89      128      116      138      
64      103      130      132      
64      130      120      133      
103      55      130      145      
120      130      119      133      
55      119      130      54      
54      119      130      144      
54      130      55      145      
50      131      105      151      
51      131      50      49      
111      131      50      151      
130      132      103      151      
64      132      130      133      
108      132      64      133      
64      132      108      63      
63      132      108      146      
65      72      132      63      
103      132      71      151      
72      71      132      146      
128      133      119      144      
89      133      128      138      
58      133      123      135      
121      123      133      138      
89      121      133      138      
119      133      130      144      
132      133      108      134      
134      132      133      130      
134      108      132      154      
134      133      108      142      
108      133      64      135      
130      134      132      151      
130      133      134      144      
64      135      133      58      
108      133      135      142      
108      135      64      59      
123      135      133      142      
110      135      92      141      
92      135      123      141      
59      135      110      108      
93      95      136      149      
93      136      114      150      
124      136      95      156      
114      136      124      150      
128      138      133      144      
123      133      138      142      
93      138      116      149      
116      138      128      149      
123      138      93      136      
126      139      100      149      
95      100      139      149      
95      139      113      156      
124      140      99      137      
137      140      99      115      
61      75      141      92      
141      75      61      112      
75      141      123      150      
135      141      110      143      
123      141      135      143      
123      135      142      143      
142      138      123      136      
123      142      136      148      
133      138      142      144      
142      143      135      108      
108      142      143      155      
108      143      135      110      
123      143      142      148      
68      108      143      155      
128      144      129      138      
127      144      128      54      
129      128      138      149      
144      142      133      134      
105      144      130      151      
130      144      105      54      
54      105      130      145      
130      144      134      151      
103      145      130      151      
130      145      105      151      
54      105      145      53      
54      145      55      53      
53      105      145      52      
53      52      145      27      
27      52      145      29      
52      145      29      50      
50      145      29      103      
50      145      103      151      
50      105      145      151      
66      146      108      109      
109      146      108      155      
63      146      66      70      
70      63      146      72      
132      146      63      72      
108      146      132      154      
70      71      146      152      
132      146      71      154      
129      149      138      136      
136      129      149      156      
136      149      138      93      
136      149      95      156      
95      149      139      156      
139      149      126      156      
129      126      149      156      
93      150      123      136      
124      150      136      148      
148      150      136      123      
105      151      131      144      
144      151      131      134      
134      151      131      154      
71      151      132      154      
132      151      134      154      
111      151      71      131      
103      151      111      50      
71      146      152      154      
71      152      122      153      
153      122      71      131      
71      153      131      154      
71      152      153      154      
147      154      131      153      
131      154      147      134      
134      154      147      142      
131      71      154      151      
108      154      142      155      
142      154      108      134      
142      154      147      155      
108      146      154      155      
82      115      125      86      
125      115      82      79      
2      3       4      2      
1      2       4      1      
8      6       7      8      
7      9       8      7      
9      5       8      9      
1      4       10      1      
4      3       11      4      
4      11       9      4      
10      4       9      10      