title = " tecplot file for process Mesh " 
variables = "x",  "y", "z", "cell_type" 
zone N = 162 E = 737 DATAPACKING = BLOCK,  VARLOCATION = ([4]=CELLCENTERED), ZONETYPE=FETETRAHEDRON 
4.291666e-01     
4.284215e-01     4.000000e-01     3.405134e-01     3.360099e-01     3.000000e-01     
5.000000e-01     4.158415e-01     5.000000e-01     5.000000e-01     2.393170e-01     
2.315953e-01     2.000000e-01     5.000000e-01     5.000000e-01     4.156594e-01     
5.000000e-01     4.124834e-01     5.000000e-01     5.000000e-01     5.000000e-01     
3.999159e-01     5.000000e-01     5.000000e-01     4.157591e-01     5.000000e-01     
5.000000e-01     5.000000e-01     5.000000e-01     4.167259e-01     5.000000e-01     
5.000000e-01     4.324995e-01     5.000000e-01     5.000000e-01     4.159608e-01     
5.000000e-01     4.315081e-01     1.377046e-01     1.321828e-01     5.000000e-01     
5.000000e-01     4.189437e-01     5.000000e-01     4.099428e-01     5.000000e-01     
5.000000e-01     3.371435e-01     4.245291e-01     5.000000e-01     5.000000e-01     
3.400973e-01     4.064314e-01     5.000000e-01     5.000000e-01     4.045636e-01     
5.000000e-01     4.175237e-01     4.096621e-01     4.172429e-01     5.000000e-01     
5.000000e-01     4.144159e-01     5.000000e-01     4.008310e-01     4.052975e-01     
5.000000e-01     4.558078e-02     7.535529e-02     5.410661e-02     5.178851e-02     
1.616572e-01     2.552965e-01     2.161830e-01     2.159937e-01     2.404959e-01     
2.200120e-01     2.672095e-01     3.263200e-01     1.998937e-01     9.813176e-02     
8.980139e-02     3.241324e-01     6.042708e-02     1.091621e-01     1.120897e-01     
1.549696e-01     2.303081e-01     2.816513e-01     2.849217e-01     3.297242e-01     
1.741537e-01     1.312488e-01     2.362427e-01     2.318402e-01     2.995110e-01     
3.251468e-01     4.346364e-01     4.128872e-01     4.183512e-01     3.342662e-01     
4.047434e-01     4.209833e-01     4.199403e-01     4.108065e-01     4.224014e-01     
5.000000e-01     4.114264e-01     3.122917e-01     1.579027e-01     1.753817e-01     
-9.253668e-03     3.441565e-01     1.196113e-01     -1.338303e-02     3.033129e-01     
1.236821e-01     2.294465e-01     3.478584e-01     1.734785e-01     2.088979e-01     
3.129668e-01     3.254416e-01     3.854274e-01     3.584103e-01     3.483688e-01     
4.672397e-02     3.537607e-01     4.351436e-02     4.238071e-01     2.753953e-01     
2.094841e-01     3.102990e-01     3.634810e-01     2.747904e-01     3.415252e-01     
2.859465e-01     1.586154e-01     4.733284e-02     1.627360e-01     1.596909e-01     
2.322446e-01     2.352976e-01     3.195085e-01     3.198512e-01     3.244468e-01     
2.776291e-01     2.262415e-01     1.316131e-01     2.272211e-01     1.569956e-01     
5.670359e-02     2.772326e-01     3.278424e-01     2.873769e-01     1.450589e-01     
2.202300e-01     4.433114e-01     2.809662e-01     2.323347e-01     3.014280e-01     
1.918974e-01     
5.000000e-01     
4.295968e-01     5.000000e-01     4.165746e-01     5.000000e-01     5.000000e-01     
5.000000e-01     5.000000e-01     4.002185e-01     5.000000e-01     4.133445e-01     
5.000000e-01     5.000000e-01     1.385241e-01     2.000000e-01     1.332982e-01     
1.000000e-01     2.327661e-01     2.398472e-01     3.000000e-01     3.408169e-01     
3.370237e-01     4.000000e-01     0.000000e+00     -3.538671e-02     -3.199024e-02     
5.250692e-02     5.000000e-01     4.163841e-01     5.000000e-01     5.000000e-01     
4.321533e-01     5.000000e-01     5.000000e-01     4.162748e-01     5.000000e-01     
5.000000e-01     4.921320e-02     4.153532e-01     5.000000e-01     4.285649e-01     
5.000000e-01     3.898668e-01     3.302813e-01     3.563551e-01     4.128642e-01     
3.259199e-01     4.820785e-02     2.544020e-02     5.580392e-02     -6.244155e-02     
5.000000e-01     3.957228e-01     3.387404e-01     2.310521e-01     2.822865e-01     
2.855261e-01     2.887301e-01     -7.576147e-02     1.849237e-01     1.763997e-01     
2.371940e-01     2.078329e-01     1.552525e-01     1.151951e-01     2.708136e-01     
2.365064e-01     5.000000e-01     4.055642e-01     3.369475e-01     4.312317e-01     
5.000000e-01     5.000000e-01     4.081786e-01     4.087856e-01     5.000000e-01     
5.000000e-01     4.011284e-01     5.000000e-01     4.018832e-01     5.000000e-01     
4.123743e-01     5.000000e-01     1.440632e-01     1.782696e-01     2.381181e-01     
1.526275e-01     2.245509e-01     2.701496e-01     3.282316e-01     2.576664e-01     
1.032071e-01     5.237629e-02     1.046175e-01     -8.104138e-03     1.057775e-01     
1.645071e-01     4.316022e-01     5.000000e-01     4.175448e-01     4.051028e-01     
1.429776e-01     2.615752e-02     1.920898e-01     2.101569e-01     3.466218e-01     
3.268247e-01     3.180684e-01     3.957599e-01     4.179037e-01     3.244476e-01     
3.553289e-01     4.246380e-01     3.942137e-01     4.055197e-01     4.068890e-01     
2.959851e-01     3.467533e-01     2.375299e-01     -7.621675e-03     1.984652e-01     
-8.887055e-03     -6.876026e-02     1.033214e-01     3.655507e-01     3.216224e-01     
4.019531e-01     2.280819e-01     2.859603e-01     3.012151e-01     3.628053e-01     
2.932253e-01     2.938676e-01     2.737711e-01     2.699378e-01     3.128120e-01     
3.517081e-01     1.508936e-01     3.076187e-01     3.275821e-01     3.482882e-01     
-3.458726e-02     5.027442e-02     2.058578e-01     2.125020e-01     3.239175e-01     
3.352205e-01     2.874042e-01     5.316022e-02     5.876071e-02     2.345615e-01     
1.960636e-01     2.023232e-01     1.796207e-01     7.962167e-02     -3.100215e-02     
1.622257e-01     2.766187e-01     1.977264e-01     1.298456e-01     1.379059e-01     
-1.007829e-01     
4.279380e-01     
5.000000e-01     5.000000e-01     5.000000e-01     3.986949e-01     5.000000e-01     
3.000000e-01     3.395489e-01     3.372980e-01     4.000000e-01     5.000000e-01     
4.114011e-01     5.000000e-01     4.164962e-01     5.000000e-01     5.000000e-01     
5.000000e-01     5.000000e-01     4.139005e-01     5.000000e-01     4.168381e-01     
5.000000e-01     5.000000e-01     5.000000e-01     5.000000e-01     4.168623e-01     
4.326332e-01     0.000000e+00     -3.482816e-02     -3.401332e-02     -1.000000e-01     
4.966861e-02     5.093201e-02     1.000000e-01     1.338316e-01     1.366332e-01     
2.000000e-01     5.000000e-01     5.000000e-01     4.155384e-01     4.297174e-01     
5.000000e-01     3.946178e-01     2.582393e-01     2.188789e-01     2.331329e-01     
1.652643e-01     5.000000e-01     3.965849e-01     3.402593e-01     3.277753e-01     
5.170053e-02     7.764854e-02     4.944539e-02     2.254400e-01     2.708449e-01     
3.288553e-01     3.865313e-01     3.859192e-01     3.854066e-01     3.258233e-01     
1.054914e-01     1.613247e-01     1.530427e-01     3.021381e-01     4.991876e-02     
-5.180564e-03     3.388750e-01     3.955337e-01     5.000000e-01     5.000000e-01     
3.233363e-01     3.268755e-01     3.538710e-01     4.831717e-02     1.059542e-01     
2.243635e-01     2.778618e-01     2.823463e-01     1.555070e-01     2.350423e-01     
1.715661e-01     1.724774e-01     5.000000e-01     4.123820e-01     5.000000e-01     
5.000000e-01     5.000000e-01     4.043188e-01     5.000000e-01     5.000000e-01     
4.158851e-01     5.000000e-01     5.000000e-01     5.000000e-01     4.045382e-01     
5.000000e-01     2.882578e-01     2.381480e-01     1.595807e-01     -7.463498e-03     
8.376815e-02     3.053117e-01     2.530347e-01     -2.246080e-02     2.956004e-03     
-6.729391e-02     1.320240e-01     3.990102e-01     4.164081e-01     5.000000e-01     
4.210254e-01     2.270349e-01     2.854899e-01     3.027416e-01     1.163367e-01     
3.957879e-01     4.251274e-01     3.384389e-01     4.051746e-01     4.035978e-01     
3.819854e-01     5.000000e-01     3.875638e-01     3.114284e-01     4.301783e-01     
2.434862e-01     4.233321e-01     4.295877e-01     -1.002472e-01     1.934246e-01     
3.045771e-01     2.718335e-01     1.924274e-01     1.870548e-01     -4.478111e-02     
4.700822e-02     3.171279e-01     3.100022e-01     2.181834e-01     3.420747e-01     
3.289816e-01     3.809741e-01     -5.911103e-02     8.662246e-02     1.327462e-01     
3.436354e-01     9.904607e-02     3.337011e-01     2.936702e-01     3.429802e-01     
3.061275e-01     3.591781e-01     2.103820e-01     3.345710e-01     2.942489e-01     
2.527781e-01     1.924084e-01     4.394627e-01     3.662662e-01     3.700488e-01     
3.206679e-01     

0      
0      0      0      0      0      0      0      0      0      0      
0      0      0      0      0      0      0      0      0      0      
0      0      0      0      0      0      0      0      0      0      
0      0      0      0      0      0      0      0      0      0      
0      0      0      0      0      0      0      0      0      0      
0      0      0      0      0      0      0      0      0      0      
0      0      0      0      0      0      0      0      0      0      
0      0      0      0      0      0      0      0      0      0      
0      0      0      0      0      0      0      0      0      0      
0      0      0      0      0      0      0      0      0      0      
0      0      0      0      0      0      0      0      0      0      
0      0      0      0      0      0      0      0      0      0      
0      0      0      0      0      0      0      0      0      0      
0      0      0      0      0      0      0      0      0      0      
0      0      0      0      0      0      0      0      0      0      
0      0      0      0      0      0      0      0      0      0      
0      0      0      0      0      0      0      0      0      0      
0      0      0      0      0      0      0      0      0      0      
0      0      0      0      0      0      0      0      0      0      
0      0      0      0      0      0      0      0      0      0      
0      0      0      0      0      0      0      0      0      0      
0      0      0      0      0      0      0      0      0      0      
0      0      0      0      0      0      0      0      0      0      
0      0      0      0      0      0      0      0      0      0      
0      0      0      0      0      0      0      0      0      0      
0      0      0      0      0      0      0      0      0      0      
0      0      0      0      0      0      0      0      0      0      
0      0      0      0      0      0      0      0      0      0      
0      0      0      0      0      0      0      0      0      0      
0      0      0      0      0      0      0      0      0      0      
0      0      0      0      0      0      0      0      0      0      
0      0      0      0      0      0      0      0      0      0      
0      0      0      0      0      0      0      0      0      0      
0      0      0      0      0      0      0      0      0      0      
0      0      0      0      0      0      0      0      0      0      
0      0      0      0      0      0      0      0      0      0      
0      0      0      0      0      0      0      0      0      0      
0      0      0      0      0      0      0      0      0      0      
0      0      0      0      0      0      0      0      0      0      
0      0      0      0      0      0      0      0      0      0      
0      0      0      0      0      0      0      0      0      0      
0      0      0      0      0      0      0      0      0      0      
0      0      0      0      0      0      0      0      0      0      
0      0      0      0      0      0      0      0      0      0      
0      0      0      0      0      0      0      0      0      0      
0      0      0      0      0      0      0      0      0      0      
0      0      0      0      0      0      1      1      1      1      
1      1      1      1      1      1      1      1      1      1      
1      1      1      1      1      1      1      1      1      1      
1      1      1      1      1      1      1      1      1      1      
1      1      1      1      1      1      1      1      1      1      
1      1      1      1      1      1      1      1      1      1      
1      1      1      1      1      1      1      1      1      1      
1      1      1      1      1      1      1      1      1      1      
1      1      1      1      1      1      1      1      1      1      
1      1      1      1      1      1      1      1      1      1      
1      1      1      1      1      1      1      1      1      1      
1      1      1      1      1      1      1      1      1      1      
1      1      1      1      1      1      1      1      1      1      
1      1      1      1      1      1      1      1      1      1      
1      1      1      1      1      1      1      1      1      1      
1      1      1      1      1      1      1      1      1      1      
1      1      1      1      1      1      1      1      1      1      
1      1      1      1      1      1      1      1      1      1      
1      1      1      1      1      1      1      1      1      1      
1      1      1      1      1      1      1      1      1      1      
1      1      1      1      1      1      1      1      1      1      
1      1      1      1      1      1      1      1      1      1      
1      1      1      1      1      1      1      1      1      1      
1      1      1      1      1      1      1      1      1      1      
1      1      1      1      1      1      1      1      1      1      
1      1      1      1      1      1      1      1      1      1      
1      1      1      1      1      1      1      1      1      1      
1      1      1      1      1      1      

1      2      3      42      
3      2      1      4      
1      4      2      43      
1      3      4      5      
4      1      5      43      
4      5      3      6      
4      5      6      109      
7      8      9      98      
9      8      7      10      
10      9      8      43      
11      6      12      109      
12      6      11      13      
11      12      13      110      
14      15      16      60      
16      15      14      17      
17      14      16      27      
18      19      20      58      
20      19      18      15      
18      15      19      60      
21      22      20      58      
20      22      21      23      
21      23      22      43      
16      27      14      124      
17      27      16      38      
28      29      30      32      
30      29      28      31      
28      32      30      33      
33      28      32      34      
33      32      30      53      
30      32      29      106      
33      34      32      35      
33      35      32      53      
33      34      35      36      
35      36      34      37      
33      36      35      53      
37      35      36      100      
38      17      27      24      
27      38      24      49      
16      38      27      124      
2      41      42      1      
42      41      2      23      
2      23      41      43      
41      42      1      10      
2      41      1      43      
41      10      1      43      
22      43      4      126      
4      43      22      2      
2      43      22      23      
5      43      1      8      
4      43      5      109      
9      43      21      58      
21      43      9      41      
41      21      43      23      
41      43      9      10      
5      43      8      125      
1      8      43      10      
8      43      9      98      
21      43      22      58      
44      45      46      98      
46      45      44      47      
47      46      45      100      
47      45      44      158      
48      49      38      124      
38      49      48      25      
25      38      49      24      
25      49      48      122      
24      49      25      26      
26      24      49      27      
27      49      26      50      
38      49      27      124      
50      27      49      124      
50      49      26      51      
52      53      33      30      
33      53      52      36      
36      53      52      116      
35      53      36      100      
32      53      35      54      
30      53      32      106      
54      53      35      108      
32      53      54      106      
55      56      57      104      
57      56      55      44      
44      57      56      125      
44      56      55      158      
9      58      57      125      
57      58      9      21      
21      57      58      19      
43      58      9      125      
57      58      19      60      
21      19      58      20      
22      58      43      126      
20      58      22      18      
18      58      22      126      
18      19      58      60      
18      60      58      128      
61      60      14      65      
14      60      61      19      
19      14      60      15      
19      60      61      57      
57      60      61      104      
57      58      60      56      
58      60      56      119      
57      56      60      104      
57      58      56      125      
18      15      60      16      
16      60      18      128      
14      60      16      124      
62      63      64      102      
64      63      62      55      
55      63      62      158      
14      65      60      124      
61      60      65      104      
62      66      54      108      
54      66      62      67      
67      54      66      106      
67      66      62      102      
39      69      70      117      
70      69      39      71      
72      69      40      110      
40      69      72      68      
68      69      72      114      
73      74      12      109      
12      74      73      72      
72      12      74      110      
72      74      73      78      
77      78      73      79      
73      78      77      72      
72      78      77      114      
73      78      74      109      
72      74      78      114      
77      78      79      113      
73      79      78      109      
83      76      80      116      
80      76      83      77      
83      80      77      131      
87      86      85      121      
85      86      87      84      
87      85      84      92      
88      89      90      118      
90      89      88      91      
91      90      89      126      
91      89      88      159      
87      92      84      93      
93      87      92      94      
85      92      87      121      
94      87      92      121      
94      92      93      95      
95      94      92      143      
94      96      97      159      
97      96      94      48      
48      97      96      124      
48      96      94      143      
79      98      99      113      
99      98      79      8      
8      99      98      7      
8      98      79      125      
44      98      9      125      
9      98      44      46      
46      9      98      7      
46      98      45      100      
44      45      98      125      
43      98      8      125      
9      98      43      125      
99      98      7      46      
36      100      53      116      
35      53      100      108      
83      100      36      116      
36      100      83      99      
99      36      100      37      
99      100      83      113      
98      100      99      113      
99      100      98      46      
46      99      100      37      
45      100      98      113      
37      46      99      7      
37      100      46      35      
35      100      46      47      
35      100      47      108      
47      100      45      108      
62      102      66      63      
63      66      62      108      
63      102      66      145      
66      102      67      105      
57      104      61      55      
55      56      104      158      
102      105      66      145      
67      66      105      106      
105      106      66      136      
67      106      105      130      
54      106      67      107      
107      54      106      29      
107      106      67      130      
54      66      106      53      
54      106      29      32      
62      108      47      158      
47      108      62      54      
54      47      108      35      
54      108      66      53      
63      66      108      145      
63      108      62      158      
53      100      108      146      
45      108      100      146      
47      108      45      158      
90      109      11      118      
11      109      90      4      
4      11      109      6      
4      109      90      126      
11      109      74      118      
74      109      11      12      
12      11      74      110      
73      109      5      79      
5      109      73      12      
12      5      109      6      
74      109      78      147      
79      109      5      125      
78      109      79      125      
5      109      43      125      
4      43      109      126      
40      110      69      39      
39      40      110      13      
39      110      69      117      
72      69      110      114      
72      110      40      12      
40      12      110      13      
72      110      74      114      
74      110      11      118      
111      110      39      117      
39      110      111      11      
11      39      110      13      
11      110      111      118      
98      113      79      125      
99      79      113      83      
45      100      113      146      
45      113      98      125      
83      113      100      116      
79      113      83      77      
77      113      83      131      
78      113      77      131      
79      113      78      125      
82      114      80      140      
80      114      82      81      
81      80      114      77      
80      114      77      78      
81      77      114      72      
80      114      78      140      
77      80      78      131      
81      72      114      68      
69      110      114      141      
74      114      110      141      
68      69      114      115      
69      114      115      139      
68      115      114      127      
78      114      74      141      
52      116      101      75      
101      116      52      53      
53      101      116      137      
53      52      101      30      
75      116      101      137      
52      116      75      76      
76      52      116      83      
76      116      75      80      
83      52      116      36      
53      116      100      146      
113      116      83      131      
100      116      113      146      
83      116      80      131      
75      80      116      148      
86      117      70      129      
70      117      86      111      
111      70      117      39      
111      117      86      121      
70      117      69      129      
69      117      110      141      
110      117      111      118      
109      118      90      126      
11      90      118      111      
74      118      109      147      
90      118      111      88      
88      118      111      121      
90      118      89      126      
88      89      118      121      
117      118      110      141      
111      118      117      121      
110      118      74      141      
119      60      56      104      
56      119      104      154      
58      60      119      128      
58      119      56      125      
87      121      88      86      
88      121      87      94      
94      88      121      159      
94      121      92      160      
92      121      85      138      
86      121      88      111      
85      121      86      117      
85      117      86      129      
85      121      117      151      
89      118      121      151      
89      121      88      159      
117      121      118      151      
49      59      122      25      
122      59      49      103      
49      122      103      124      
25      122      48      123      
48      122      49      124      
103      124      122      155      
122      124      48      96      
96      122      124      155      
96      48      122      143      
97      124      16      128      
16      124      97      48      
48      16      124      38      
97      96      124      128      
14      124      27      50      
16      124      60      128      
60      124      65      161      
79      8      125      5      
109      125      78      147      
78      125      113      133      
56      125      119      133      
58      119      125      126      
43      58      125      126      
9      125      57      44      
44      125      56      45      
45      125      56      133      
44      45      56      158      
113      125      45      133      
89      126      118      147      
118      126      109      147      
22      126      90      91      
90      126      22      4      
109      126      43      125      
91      22      126      18      
91      126      89      128      
109      126      125      147      
119      125      126      147      
119      126      58      128      
18      126      91      128      
58      126      18      128      
89      91      128      159      
89      128      126      119      
119      89      128      153      
119      126      89      147      
91      18      128      97      
60      119      128      161      
96      124      128      161      
96      128      97      159      
16      97      128      18      
60      128      124      161      
97      128      91      159      
85      117      129      152      
112      129      69      139      
69      129      112      70      
69      129      117      139      
105      130      106      136      
116      131      113      146      
80      131      116      148      
78      131      80      140      
113      131      78      133      
132      133      131      135      
131      133      132      78      
78      132      131      140      
78      133      132      147      
78      125      133      147      
131      133      113      45      
45      131      133      134      
45      113      131      146      
131      133      134      135      
45      134      133      56      
45      131      134      146      
134      133      56      154      
45      134      56      158      
135      133      134      154      
131      135      134      146      
135      131      132      140      
119      133      125      147      
56      133      119      154      
130      136      105      144      
105      136      66      144      
116      137      75      148      
53      137      116      146      
106      53      66      137      
66      137      53      146      
121      138      92      160      
85      138      121      151      
117      139      129      152      
69      139      117      141      
69      114      139      141      
69      139      115      112      
135      131      140      148      
78      132      140      141      
78      140      114      141      
80      140      131      148      
74      141      118      147      
118      141      117      151      
132      141      78      147      
74      78      141      147      
122      143      142      155      
142      143      122      120      
120      142      143      149      
120      143      122      95      
120      143      95      92      
94      92      143      160      
94      143      95      48      
48      143      95      122      
94      143      96      160      
96      143      122      155      
105      144      66      145      
108      145      66      146      
63      145      108      134      
63      145      134      154      
108      134      145      146      
108      63      134      158      
134      146      135      145      
131      135      146      148      
45      146      134      108      
45      108      134      158      
131      146      116      148      
53      146      108      66      
116      146      137      148      
137      146      66      145      
134      145      135      154      
132      147      133      153      
118      147      141      132      
118      132      141      151      
118      147      132      89      
133      147      119      153      
119      147      89      153      
89      132      118      151      
89      147      132      153      
142      150      149      156      
149      150      142      143      
142      143      150      155      
120      142      149      156      
117      85      151      152      
121      151      138      153      
89      132      151      153      
89      151      121      153      
138      121      153      160      
138      153      151      157      
128      153      89      159      
119      153      128      161      
104      56      154      134      
134      154      104      63      
56      134      104      158      
104      134      63      158      
124      155      65      161      
65      155      124      103      
96      155      124      161      
143      155      96      160      
120      142      156      162      
153      157      138      160      
151      157      153      132      
121      89      153      159      
44      47      158      55      
47      158      55      62      
104      158      63      55      
88      91      159      97      
121      159      153      160      
153      159      128      161      
97      159      88      94      
94      159      121      160      
94      96      159      160      
96      128      159      161      
153      160      159      161      
96      159      160      161      
96      160      155      161      
2      3       4      2      