title = " tecplot file for process Mesh " 
variables = "x",  "y", "z", "cell_type" 
zone N = 151 E = 700 DATAPACKING = BLOCK,  VARLOCATION = ([4]=CELLCENTERED), ZONETYPE=FETETRAHEDRON 
5.000000e-01     
4.129854e-01     5.000000e-01     5.000000e-01     5.000000e-01     5.000000e-01     
4.156594e-01     5.000000e-01     5.000000e-01     4.157591e-01     5.000000e-01     
5.000000e-01     4.315081e-01     5.000000e-01     4.198149e-01     5.000000e-01     
3.371435e-01     4.245291e-01     5.000000e-01     5.000000e-01     4.057430e-01     
5.000000e-01     4.108373e-01     5.000000e-01     5.000000e-01     3.254416e-01     
4.096621e-01     5.000000e-01     4.085189e-01     5.000000e-01     5.000000e-01     
4.068689e-01     4.224965e-01     4.008310e-01     1.303272e-01     1.312488e-01     
7.029767e-02     7.124845e-02     1.749584e-01     2.318402e-01     2.353253e-01     
1.741537e-01     2.362427e-01     2.955133e-01     3.257731e-01     2.995110e-01     
3.251468e-01     4.164252e-01     4.047434e-01     4.139700e-01     4.127968e-01     
4.112549e-01     4.209833e-01     1.734785e-01     7.451989e-03     8.497506e-02     
9.838253e-03     3.129668e-01     3.854274e-01     3.697653e-01     3.150052e-01     
9.417713e-02     3.063264e-01     2.550536e-01     3.138869e-01     3.027383e-01     
2.896198e-01     2.520400e-01     3.281580e-01     3.203314e-01     1.706483e-01     
3.277954e-01     2.322446e-01     2.352976e-01     2.004760e-01     2.290357e-01     
2.706521e-01     1.294959e-01     3.309286e-01     2.188093e-01     3.328683e-01     
3.918877e-02     3.186261e-02     -2.636471e-02     1.316131e-01     2.272211e-01     
1.586154e-01     1.039903e-01     2.034474e-01     2.046196e-01     3.383085e-02     
1.576681e-01     1.861441e-01     2.109819e-01     1.016838e-01     2.496945e-01     
-4.975425e-02     2.742418e-01     2.873769e-01     5.146898e-02     2.813883e-02     
1.498652e-01     3.014563e-01     1.326207e-01     2.333877e-01     1.447527e-01     
1.573082e-01     1.450589e-01     1.281992e-01     3.356618e-02     6.426166e-02     
2.407601e-01     1.954645e-01     1.414686e-01     2.133663e-02     9.976539e-02     
2.167192e-01     1.222356e-01     5.670359e-02     1.587556e-02     -3.236617e-02     
7.949834e-02     -6.652962e-02     2.905901e-02     -4.713288e-02     3.991298e-02     
1.062512e-01     1.084511e-01     1.859918e-01     2.597917e-01     2.533067e-01     
9.402633e-03     4.206163e-02     9.364570e-02     9.027723e-02     1.152956e-01     
-3.809240e-02     -1.198214e-01     -9.934045e-02     -9.481050e-02     1.340859e-01     
4.099856e-02     -2.441756e-02     1.517068e-02     1.377003e-01     3.651089e-03     
1.930056e-01     2.323347e-01     2.026841e-01     4.158654e-03     1.918974e-01     

-1.328526e-01     
-1.355658e-01     -2.000000e-01     -1.000000e-01     1.385241e-01     2.000000e-01     
1.332982e-01     1.000000e-01     0.000000e+00     -3.538671e-02     -3.199024e-02     
5.250692e-02     4.921320e-02     7.489395e-03     2.405180e-02     1.309113e-01     
4.820785e-02     2.544020e-02     5.580392e-02     -6.244155e-02     1.160623e-01     
6.001601e-02     1.095501e-01     1.133817e-01     1.552525e-01     -6.876026e-02     
-7.576147e-02     2.700310e-03     -5.633150e-02     -1.092533e-01     -4.523982e-02     
7.421862e-03     -9.524623e-02     1.151951e-01     -7.042014e-02     5.237629e-02     
-5.278798e-02     3.541531e-02     -1.189586e-01     -8.104138e-03     -1.192238e-01     
1.032071e-01     1.046175e-01     -1.208096e-01     -1.744448e-01     1.057775e-01     
1.645071e-01     -1.573658e-01     1.429776e-01     -1.252840e-01     -1.369053e-01     
1.827779e-02     2.615752e-02     -7.621675e-03     -1.273732e-01     -1.867729e-01     
-2.789418e-01     -8.887055e-03     1.033214e-01     6.457785e-02     -5.510661e-02     
-1.080759e-01     -9.604617e-02     -1.914807e-01     -2.066715e-01     1.367728e-01     
1.197060e-01     4.633019e-02     2.526912e-02     -4.705125e-02     -1.757973e-01     
-7.906922e-04     -3.458726e-02     5.027442e-02     -2.639549e-02     6.272434e-02     
-3.283915e-02     2.548939e-02     3.782396e-02     -3.705678e-02     -1.236659e-01     
-3.721965e-02     5.158073e-02     -9.755535e-02     5.316022e-02     5.876071e-02     
1.508936e-01     1.000127e-01     9.500666e-02     1.458495e-01     -1.850756e-01     
-2.747160e-01     -1.625679e-01     -2.649112e-01     -1.889891e-01     -1.474767e-01     
2.644615e-03     -1.160611e-01     7.962167e-02     -8.234295e-02     2.280225e-02     
-8.010773e-02     7.716075e-02     4.712919e-03     -8.348887e-02     -9.261482e-02     
-2.976567e-03     -3.100215e-02     1.128847e-01     1.805921e-01     2.169469e-01     
4.260397e-03     -7.660485e-02     1.021592e-01     1.266201e-01     6.200321e-02     
1.858947e-01     1.895138e-01     1.960636e-01     1.277716e-01     7.606658e-02     
1.227642e-01     -5.878848e-02     -4.029087e-02     5.267871e-02     -2.741064e-01     
-2.351143e-01     -2.046765e-01     -1.634368e-01     -5.298887e-02     -1.102908e-01     
4.377349e-02     2.464823e-02     -8.588324e-02     -2.192406e-02     1.478539e-01     
1.641181e-01     8.944716e-02     -2.124176e-02     1.319178e-01     -1.531284e-01     
-1.277071e-01     -2.158492e-02     1.115827e-01     -7.325732e-02     -1.016461e-01     
6.330788e-02     1.298456e-01     -3.789225e-02     -1.960583e-01     -1.007829e-01     

4.131198e-01     
5.000000e-01     5.000000e-01     5.000000e-01     4.164962e-01     5.000000e-01     
5.000000e-01     5.000000e-01     5.000000e-01     5.000000e-01     4.168623e-01     
4.326332e-01     5.000000e-01     4.679255e-02     -1.261730e-02     5.067157e-02     
5.000000e-01     3.965849e-01     3.402593e-01     3.277753e-01     -1.415715e-02     
1.450579e-01     1.794774e-01     2.403316e-01     1.530427e-01     5.000000e-01     
3.859192e-01     2.404869e-01     2.681085e-01     2.360632e-01     1.479346e-01     
1.132617e-01     1.205610e-01     3.021381e-01     5.000000e-01     5.000000e-01     
4.203130e-01     4.149221e-01     4.054611e-01     5.000000e-01     5.000000e-01     
4.158851e-01     5.000000e-01     4.137085e-01     5.000000e-01     4.045382e-01     
5.000000e-01     4.157073e-01     8.376815e-02     2.072431e-01     3.152914e-01     
2.082410e-01     3.053117e-01     4.051746e-01     3.985726e-01     4.073860e-01     
4.185878e-01     3.819854e-01     3.875638e-01     5.229300e-02     1.728620e-01     
3.113153e-01     3.021365e-01     2.641652e-01     3.421476e-01     9.029134e-03     
1.368564e-01     3.777487e-02     -5.044899e-02     5.612593e-02     3.202302e-01     
2.841447e-01     3.289816e-01     3.809741e-01     -2.407255e-02     -8.574390e-02     
-1.065757e-01     -8.765528e-02     1.615049e-01     1.109510e-01     1.101786e-01     
3.344640e-01     3.091460e-01     2.826959e-01     3.337011e-01     2.936702e-01     
3.171279e-01     2.353010e-01     1.956325e-01     6.589751e-02     3.231689e-01     
1.578260e-01     1.287147e-01     2.316646e-01     2.219312e-01     3.442910e-01     
2.669787e-01     2.222330e-01     3.345710e-01     -5.766458e-02     -5.066427e-02     
-1.039839e-01     2.405767e-01     1.760556e-01     3.612803e-02     4.137124e-02     
5.281515e-02     2.942489e-01     1.495434e-01     1.915037e-01     8.611439e-02     
1.972103e-01     2.294396e-01     -1.128492e-02     5.222241e-02     8.092342e-02     
-3.342174e-02     2.424339e-01     3.061275e-01     2.628954e-01     1.708620e-01     
3.501652e-01     -2.919534e-02     5.922692e-02     2.068263e-02     2.813638e-01     
3.358356e-01     1.350005e-01     2.169463e-01     2.611366e-01     1.392663e-01     
9.414728e-02     2.134139e-01     2.095514e-01     -3.802190e-03     6.105599e-02     
1.235447e-01     9.974062e-02     5.291877e-02     2.148884e-02     1.728380e-01     
1.148639e-01     1.585659e-01     1.252687e-01     1.298024e-01     1.953350e-01     
1.082801e-01     3.662662e-01     2.758650e-01     2.633477e-01     3.206679e-01     


0      
0      0      0      0      0      0      0      0      0      0      
0      0      0      0      0      0      0      0      0      0      
0      0      0      0      0      0      0      0      0      0      
0      0      0      0      0      0      0      0      0      0      
0      0      0      0      0      0      0      0      0      0      
0      0      0      0      0      0      0      0      0      0      
0      0      0      0      0      0      0      0      0      0      
0      0      0      0      0      0      0      0      0      0      
0      0      0      0      0      0      0      0      0      0      
0      0      0      0      0      0      0      0      0      0      
0      0      0      0      0      0      0      0      0      0      
0      0      0      0      0      0      0      0      0      0      
0      0      0      0      0      0      0      0      0      0      
0      0      0      0      0      0      0      0      0      0      
0      0      0      0      0      0      0      0      0      0      
0      0      0      0      0      0      0      0      0      0      
0      0      0      0      0      0      0      0      0      0      
0      0      0      0      0      0      0      0      0      0      
0      0      0      0      0      0      0      0      0      0      
0      0      0      0      0      0      0      0      0      0      
0      0      0      0      0      0      0      0      0      0      
0      0      0      0      0      0      0      0      0      0      
0      0      0      0      0      0      0      0      0      0      
0      0      0      0      0      0      0      0      0      0      
0      0      0      0      0      0      0      0      0      0      
0      0      0      0      0      0      0      0      0      0      
0      0      0      0      0      0      0      0      0      0      
0      0      0      0      0      0      0      0      0      0      
0      0      0      0      0      0      0      0      0      0      
0      0      0      0      0      0      0      0      0      0      
0      0      0      0      0      0      0      0      0      0      
0      0      0      0      0      0      0      0      0      0      
0      0      0      0      0      0      0      0      0      0      
0      0      0      0      0      0      0      0      0      0      
0      0      0      0      0      0      0      0      0      0      
0      0      0      0      0      0      0      0      0      0      
0      0      0      0      0      0      0      0      0      0      
0      0      0      0      0      0      0      0      0      0      
0      0      0      0      0      0      0      0      0      0      
0      0      0      0      0      0      0      0      0      0      
0      0      0      0      0      0      0      0      0      0      
0      0      0      0      0      0      0      0      0      0      
0      0      0      0      0      0      0      0      0      0      
0      0      0      0      0      0      0      0      0      0      
0      0      0      0      0      0      0      0      0      0      
0      0      0      0      0      0      0      0      0      0      
0      0      0      0      0      1      1      1      1      1      
1      1      1      1      1      1      1      1      1      1      
1      1      1      1      1      1      1      1      1      1      
1      1      1      1      1      1      1      1      1      1      
1      1      1      1      1      1      1      1      1      1      
1      1      1      1      1      1      1      1      1      1      
1      1      1      1      1      1      1      1      1      1      
1      1      1      1      1      1      1      1      1      1      
1      1      1      1      1      1      1      1      1      1      
1      1      1      1      1      1      1      1      1      1      
1      1      1      1      1      1      1      1      1      1      
1      1      1      1      1      1      1      1      1      1      
1      1      1      1      1      1      1      1      1      1      
1      1      1      1      1      1      1      1      1      1      
1      1      1      1      1      1      1      1      1      1      
1      1      1      1      1      1      1      1      1      1      
1      1      1      1      1      1      1      1      1      1      
1      1      1      1      1      1      1      1      1      1      
1      1      1      1      1      1      1      1      1      1      
1      1      1      1      1      1      1      1      1      1      
1      1      1      1      1      1      1      1      1      1      
1      1      1      1      1      1      1      1      1      1      
1      1      1      1      1      1      1      1      1      1      
1      1      1      1      1      1      1      1      1      

1      4      2      27      
2      4      1      3      
8      5      7      12      
7      5      8      6      
9      10      11      18      
11      10      9      4      
4      11      10      27      
7      12      5      59      
8      12      7      13      
13      8      12      9      
12      13      9      18      
7      13      12      59      
17      18      13      59      
13      18      17      10      
10      13      18      9      
10      18      17      58      
11      9      18      12      
11      18      10      27      
12      18      11      19      
13      18      12      59      
19      12      18      59      
19      18      11      20      
19      18      20      53      
11      20      18      27      
22      23      24      52      
24      23      22      25      
25      23      22      49      
26      27      10      58      
10      27      26      2      
2      10      27      4      
2      27      26      44      
10      27      18      58      
11      27      1      20      
1      27      11      4      
2      1      27      48      
20      27      1      51      
20      18      27      53      
28      29      30      31      
30      29      28      20      
20      30      29      51      
20      29      28      53      
31      29      30      50      
28      29      31      52      
14      32      22      31      
22      32      14      16      
16      22      32      49      
16      32      14      60      
22      31      32      52      
35      39      40      54      
40      39      35      41      
41      40      39      44      
40      43      42      74      
42      43      40      36      
40      42      36      54      
40      44      26      58      
26      44      40      41      
41      26      44      45      
39      44      40      54      
45      26      44      2      
2      44      45      48      
17      47      46      59      
46      47      17      43      
17      46      43      74      
27      48      1      51      
2      48      27      44      
25      49      22      16      
22      49      23      32      
32      49      23      79      
22      32      23      52      
16      49      32      60      
29      50      31      52      
30      50      29      51      
27      51      29      63      
29      51      27      20      
20      27      29      53      
29      51      50      63      
48      51      27      44      
27      44      51      63      
29      52      28      53      
31      28      52      22      
28      52      22      24      
31      32      52      33      
33      32      52      61      
33      52      31      50      
33      52      50      61      
50      52      29      61      
23      52      32      79      
28      52      24      53      
24      52      23      34      
24      52      34      53      
23      34      52      103      
24      28      53      19      
34      53      52      103      
24      53      34      19      
28      53      19      20      
19      53      34      59      
52      53      29      72      
18      27      53      58      
29      53      27      72      
19      18      53      59      
44      54      39      73      
40      54      44      58      
39      54      35      37      
40      35      54      36      
39      54      37      62      
35      37      54      36      
35      39      37      56      
36      37      54      38      
37      54      38      82      
36      38      54      42      
42      54      40      74      
38      54      42      85      
37      56      39      62      
53      58      27      72      
18      58      53      59      
26      58      44      27      
40      58      26      17      
17      40      58      74      
17      58      26      10      
17      58      18      59      
27      58      44      63      
54      58      40      74      
44      58      54      73      
53      59      58      99      
34      59      53      99      
58      59      17      46      
46      58      59      99      
46      17      58      74      
17      7      59      13      
59      7      17      47      
5      59      12      19      
14      16      60      15      
32      60      49      79      
16      49      60      21      
16      60      15      21      
21      60      15      69      
21      49      60      66      
32      52      61      79      
32      61      33      70      
33      61      50      81      
29      61      52      72      
50      61      29      63      
37      62      54      82      
39      54      62      151      
56      62      37      55      
39      62      56      71      
56      62      55      91      
37      55      62      82      
27      63      29      72      
44      51      63      65      
58      63      27      72      
44      63      58      73      
44      65      63      96      
60      66      49      67      
21      66      60      69      
66      67      60      68      
49      60      67      79      
68      66      67      90      
68      60      66      69      
68      67      60      79      
68      60      69      70      
68      69      66      76      
61      70      32      79      
33      70      61      81      
68      60      70      79      
62      71      39      151      
56      71      62      127      
52      72      61      79      
29      61      72      63      
61      72      63      130      
53      72      52      103      
58      63      72      73      
58      72      53      99      
58      73      72      99      
63      72      73      130      
63      73      44      96      
39      44      73      96      
39      73      54      151      
54      73      58      74      
58      74      73      99      
54      73      74      85      
42      54      74      85      
43      42      74      148      
43      74      40      17      
43      74      46      148      
46      74      58      99      
75      76      77      69      
77      76      75      78      
78      75      77      102      
78      76      75      114      
69      75      76      68      
68      75      76      114      
68      76      66      117      
68      67      79      147      
70      79      60      32      
68      79      70      80      
49      79      67      23      
23      79      67      103      
70      79      61      80      
72      79      52      103      
61      79      72      112      
52      79      23      103      
79      80      68      147      
70      68      80      105      
61      70      80      131      
61      80      79      112      
50      81      61      98      
61      81      70      131      
62      82      55      84      
62      84      55      91      
62      82      84      134      
38      54      85      82      
38      85      42      122      
82      85      83      108      
83      85      82      38      
38      83      85      122      
42      85      74      148      
74      85      86      148      
86      85      74      73      
73      86      85      108      
73      74      86      99      
54      73      85      108      
87      85      88      122      
88      85      87      86      
86      88      85      108      
86      87      88      89      
86      85      87      148      
88      89      87      118      
86      89      88      104      
68      66      90      117      
68      90      67      147      
62      84      91      150      
56      91      57      127      
57      91      56      55      
62      91      56      127      
63      96      65      64      
39      96      73      151      
73      96      63      151      
64      63      96      151      
61      50      98      63      
61      98      81      131      
53      34      99      103      
53      99      72      103      
74      99      46      148      
86      99      74      148      
73      99      86      72      
72      86      73      130      
72      99      86      103      
78      75      102      135      
67      103      79      112      
79      103      72      112      
86      72      103      112      
88      104      89      109      
86      89      104      112      
86      104      88      108      
80      105      93      131      
93      105      80      106      
106      80      93      145      
106      105      80      107      
80      105      68      107      
70      105      80      131      
107      105      68      75      
75      107      105      106      
75      68      107      114      
68      80      107      147      
75      107      106      135      
106      107      80      145      
54      73      108      151      
54      108      85      82      
54      108      82      62      
83      82      108      133      
83      108      85      88      
88      108      104      133      
86      104      108      149      
73      86      108      149      
89      109      104      147      
88      104      109      133      
88      109      89      118      
61      112      72      130      
103      112      67      89      
79      67      112      147      
103      112      89      86      
67      89      112      147      
80      112      61      131      
79      112      80      147      
72      112      86      130      
104      112      89      147      
86      112      104      149      
104      112      113      149      
113      112      104      80      
80      113      112      131      
80      104      113      145      
80      112      104      147      
75      78      114      135      
68      114      76      117      
107      114      68      147      
75      114      107      135      
116      115      114      136      
114      115      116      101      
116      101      115      132      
116      114      101      135      
68      117      90      114      
90      68      114      147      
88      109      118      110      
110      88      109      144      
110      118      88      119      
118      87      88      119      
88      119      87      122      
88      119      122      120      
120      122      88      83      
83      88      120      133      
83      122      88      85      
88      119      120      110      
85      122      87      42      
87      85      42      148      
101      124      123      125      
123      124      101      100      
101      100      124      135      
125      101      124      132      
126      127      91      95      
91      127      126      57      
62      127      71      95      
62      91      127      95      
62      95      71      129      
62      91      95      150      
91      126      95      150      
92      93      129      141      
129      93      92      94      
92      129      94      95      
95      129      94      71      
92      129      95      141      
62      95      129      134      
62      129      71      151      
61      112      130      98      
112      130      98      113      
61      98      130      63      
61      112      98      131      
98      130      63      151      
113      112      130      149      
113      98      112      131      
113      130      98      151      
73      130      86      149      
86      130      112      149      
63      130      73      151      
113      131      129      98      
129      131      113      93      
93      113      129      141      
93      131      113      80      
98      129      113      151      
70      131      81      105      
104      132      116      133      
116      132      104      124      
124      116      132      101      
124      104      116      107      
124      132      104      143      
125      101      132      115      
125      132      124      139      
115      132      125      144      
116      132      115      144      
97      133      83      120      
83      133      97      82      
82      133      97      84      
108      133      82      134      
83      133      108      88      
104      133      108      134      
84      82      133      134      
84      133      97      146      
88      133      109      144      
104      109      133      116      
116      109      133      144      
116      104      109      147      
132      133      104      143      
116      133      132      144      
120      133      88      144      
121      133      120      144      
120      133      121      97      
97      133      121      143      
104      133      134      143      
104      134      108      113      
108      134      62      113      
62      134      108      82      
62      134      84      150      
84      134      133      146      
113      104      134      145      
113      108      104      149      
113      62      108      151      
113      134      62      129      
113      129      62      151      
113      134      129      141      
129      134      95      141      
62      95      134      150      
101      100      135      78      
101      135      124      116      
106      135      107      124      
124      107      106      145      
124      135      107      116      
75      135      106      102      
78      135      102      100      
78      135      101      114      
116      114      135      107      
107      116      114      147      
116      136      114      147      
115      136      116      144      
124      139      132      143      
125      132      139      138      
132      139      138      143      
125      132      138      144      
115      125      137      144      
137      125      115      140      
93      113      141      145      
113      134      141      145      
95      141      134      142      
128      141      92      95      
92      141      128      93      
93      141      128      145      
128      141      95      142      
134      95      142      146      
134      142      141      145      
121      143      133      132      
132      121      143      138      
132      133      121      144      
133      143      97      146      
104      143      134      145      
133      134      143      146      
104      124      143      145      
138      132      121      144      
137      144      125      138      
115      144      137      111      
137      144      138      121      
137      144      121      110      
109      144      116      136      
88      120      144      110      
121      144      120      110      
110      144      109      111      
115      136      144      111      
109      136      116      147      
109      144      136      111      
110      144      111      137      
113      145      93      80      
80      104      145      107      
142      145      134      143      
141      145      142      128      
128      145      142      106      
106      128      145      93      
106      145      142      124      
143      145      124      142      
142      143      134      146      
124      145      104      107      
80      104      107      147      
134      146      84      150      
134      95      146      150      
54      108      62      151      
116      107      104      147      
109      147      90      136      
90      147      109      89      
89      90      147      67      
90      136      147      114      
113      149      130      151      
113      108      149      151      
73      149      108      151      
73      130      149      151      
63      98      151      64      
98      129      151      64      
64      129      151      71      
71      151      64      96      
71      151      96      39      
3      1       4      3      
5      6       8      5      
4      1       11      4      
4      11       9      4      
5      8       12      5      
12      8       9      12      
9      11       12      9      
11      1       20      11      
5      12       19      5      
19      12       11      19      
11      20       19      11      
24      19       28      24      
28      19       20      28      
20      30       28      20      
25      24       22      25      
22      24       28      22      
28      30       31      28      
28      31       22      28      
16      25       22      16      
22      31       14      22      
16      22       14      16      
2      3       4      2      
6      7       8      6      
2      4       10      2      
10      4       9      10      
8      7       13      8      
8      13       9      8      
10      9       13      10      