title = " tecplot file for process Mesh " 
variables = "x",  "y", "z", "cell_type" 
zone N = 153 E = 710 DATAPACKING = BLOCK,  VARLOCATION = ([4]=CELLCENTERED), ZONETYPE=FETETRAHEDRON 
-4.174582e-01     
-5.000000e-01     -5.000000e-01     -4.300082e-01     -3.396938e-01     -4.000000e-01     
-3.382110e-01     -5.000000e-01     -5.000000e-01     -4.166611e-01     -5.000000e-01     
-5.000000e-01     -5.000000e-01     -5.000000e-01     -4.174151e-01     -5.000000e-01     
-5.000000e-01     -5.000000e-01     -5.000000e-01     -4.186006e-01     -5.000000e-01     
-5.000000e-01     -5.000000e-01     -4.156823e-01     -5.000000e-01     -4.133186e-01     
-5.000000e-01     -5.000000e-01     -4.307540e-01     -5.000000e-01     -5.000000e-01     
-4.156098e-01     -4.153430e-01     -2.440145e-01     -2.785733e-01     -3.335166e-01     
-2.581887e-01     -3.279125e-01     -2.420311e-01     -2.777619e-01     -3.330660e-01     
-3.276804e-01     -1.544193e-01     -3.963495e-01     -3.327696e-01     -2.767641e-01     
-2.333688e-01     -3.610812e-01     -2.144215e-01     -3.586965e-01     -3.590371e-01     
-3.889933e-01     -5.000000e-01     -3.243758e-01     -2.398445e-01     -2.973002e-01     
-3.838672e-01     -4.139072e-01     -5.000000e-01     -1.544154e-01     -1.286284e-01     
-2.941142e-01     -5.000000e-01     -4.094959e-01     -5.000000e-01     -5.000000e-01     
-4.054680e-01     -5.000000e-01     -4.043221e-01     -5.000000e-01     -4.093138e-01     
-5.000000e-01     -5.000000e-01     -4.004549e-01     -5.000000e-01     -5.000000e-01     
-3.099849e-01     -3.306552e-01     -4.399391e-01     -4.147694e-01     -4.146932e-01     
-4.151901e-01     -1.753473e-01     -4.180836e-01     -3.277610e-01     -4.239135e-01     
-4.035991e-01     -5.000000e-01     -5.000000e-01     -4.123832e-01     -4.048229e-01     
-3.882388e-01     -4.099830e-01     -2.885194e-01     -4.107858e-01     -5.000000e-01     
-4.309317e-01     -4.106734e-01     -5.000000e-01     -4.056106e-01     -4.218128e-01     
-2.972832e-01     -3.051846e-01     -3.971841e-01     -2.117630e-01     -3.108277e-01     
-2.504506e-01     -1.508407e-01     -3.285452e-01     -3.887956e-01     -3.315044e-01     
-2.693311e-01     -3.423193e-01     -3.142911e-01     -3.211086e-01     -3.715065e-01     
-3.154859e-01     -2.879696e-01     -3.190908e-01     -2.737528e-01     -2.507131e-01     
-3.381802e-01     -3.220927e-01     -2.246756e-01     -1.917610e-01     -1.673894e-01     
-1.717705e-01     -3.121240e-01     -2.969554e-01     -3.343488e-01     -2.204938e-01     
-1.918203e-01     -2.873063e-01     -3.315409e-01     -3.408194e-01     -3.394680e-01     
-2.111988e-01     -2.486574e-01     -2.402395e-01     -3.292940e-01     -2.688934e-01     
-1.983751e-01     -1.964516e-01     -1.630906e-01     -1.325225e-01     -2.086870e-01     
-8.962029e-02     -9.303104e-02     -2.328602e-01     -2.152447e-01     -2.285304e-01     
-2.392632e-01     -2.597987e-01     
3.398147e-01     
4.296004e-01     4.000000e-01     4.281086e-01     5.000000e-01     5.000000e-01     
3.988175e-01     4.312377e-01     5.000000e-01     5.000000e-01     4.147818e-01     
5.000000e-01     2.000000e-01     1.333080e-01     1.370069e-01     3.370320e-01     
3.000000e-01     5.000000e-01     4.165810e-01     5.000000e-01     5.000000e-01     
4.153630e-01     5.000000e-01     5.000000e-01     5.000000e-01     5.000000e-01     
4.105989e-01     5.000000e-01     5.000000e-01     5.000000e-01     4.133538e-01     
5.000000e-01     5.000000e-01     5.000000e-01     4.213929e-01     5.000000e-01     
5.000000e-01     5.000000e-01     5.000000e-01     4.204167e-01     5.000000e-01     
5.000000e-01     5.000000e-01     4.195011e-01     5.000000e-01     4.185140e-01     
5.000000e-01     4.217566e-01     4.120167e-01     4.200801e-01     4.191515e-01     
4.187050e-01     3.282459e-01     5.000000e-01     5.000000e-01     4.178582e-01     
4.184441e-01     5.000000e-01     3.190682e-01     5.000000e-01     4.004149e-01     
4.061553e-01     2.576814e-01     2.183271e-01     2.327756e-01     1.645243e-01     
7.691753e-02     2.245709e-01     2.701661e-01     3.227500e-01     2.609036e-01     
2.320153e-01     2.381404e-01     2.998565e-01     3.369641e-01     3.244648e-01     
3.360426e-01     2.828105e-01     2.884780e-01     2.384047e-01     3.650961e-01     
4.189232e-01     3.995669e-01     1.588279e-01     1.729900e-01     3.424513e-01     
1.984875e-01     1.046394e-01     1.526509e-01     1.782931e-01     1.368977e-01     
3.096416e-01     3.438501e-01     3.111055e-01     2.044487e-01     1.440880e-01     
3.814265e-01     1.311984e-01     4.822392e-02     4.826049e-02     2.169070e-03     
1.245069e-01     -4.929095e-03     2.828877e-01     3.391044e-01     3.339733e-01     
3.899031e-01     2.813972e-01     2.760969e-01     -2.226164e-03     5.796610e-02     
2.830495e-01     3.405978e-01     1.924633e-01     3.307454e-01     1.277019e-01     
1.887685e-01     1.198084e-01     1.960923e-01     3.376574e-01     2.747366e-01     
-6.697607e-02     2.280878e-01     1.913558e-01     3.276938e-01     3.029457e-01     
3.008064e-01     2.574947e-01     4.015117e-01     8.257817e-02     2.618667e-01     
1.996415e-01     1.837134e-01     2.397362e-01     3.508811e-01     2.806057e-01     
1.218424e-01     2.830865e-02     4.683257e-02     1.687735e-02     2.717184e-01     
1.916719e-01     2.289514e-01     1.624449e-01     2.340524e-01     7.585434e-02     
2.368886e-01     3.464819e-01     1.794806e-01     2.471014e-01     1.439005e-01     
2.237190e-01     2.875741e-01     
5.000000e-01     
4.284208e-01     5.000000e-01     5.000000e-01     4.035385e-01     5.000000e-01     
5.000000e-01     5.178556e-02     0.000000e+00     5.054534e-02     -3.296074e-02     
1.000000e-01     5.000000e-01     4.156557e-01     5.000000e-01     3.999136e-01     
5.000000e-01     3.000000e-01     3.405117e-01     3.444298e-01     4.000000e-01     
1.377013e-01     2.000000e-01     1.486201e-01     -1.000000e-01     -1.461086e-01     
-1.337883e-01     -2.000000e-01     4.301135e-01     5.000000e-01     2.393141e-01     
2.466143e-01     -4.747242e-02     1.336584e-01     9.443247e-02     9.819020e-02     
5.144882e-02     1.944588e-01     -3.069292e-02     8.296501e-03     4.133603e-03     
-9.101599e-02     5.210656e-02     3.926939e-01     2.939683e-01     2.902259e-01     
2.408883e-01     5.095638e-02     1.786558e-01     -4.478493e-02     1.470897e-01     
2.950041e-01     2.849172e-01     -1.915644e-01     -1.315413e-01     -1.380406e-01     
-1.942987e-01     -2.452230e-01     -1.710999e-01     -6.985983e-02     -1.518372e-02     
-2.409927e-01     3.297193e-01     3.557799e-01     4.124802e-01     3.251404e-01     
3.947659e-01     2.303012e-01     2.816459e-01     -6.432774e-02     -5.895842e-02     
-7.773377e-04     1.120820e-01     1.138530e-01     5.410100e-02     1.753759e-01     
4.050799e-01     5.000000e-01     4.358492e-01     5.000000e-01     2.126462e-01     
-1.121461e-01     8.044220e-02     4.170132e-01     5.000000e-01     3.416657e-01     
2.088884e-01     2.362345e-01     1.549611e-01     1.091536e-01     -8.658382e-02     
-1.671312e-01     3.187424e-03     -6.285127e-02     1.765416e-02     6.041773e-02     
9.096564e-02     3.160300e-01     3.371371e-01     2.684010e-01     3.453038e-01     
3.965953e-01     4.036275e-01     1.974936e-01     2.885639e-03     -1.416691e-01     
-6.931173e-02     -8.719599e-02     3.372893e-02     4.249480e-01     3.325482e-01     
2.869459e-01     2.686448e-01     1.499436e-01     1.606223e-01     2.414858e-01     
3.118649e-01     2.335865e-01     -4.586274e-02     6.608203e-02     1.239505e-01     
3.511369e-01     4.117109e-01     4.068594e-01     3.272298e-01     2.095232e-01     
7.929981e-02     2.120598e-01     2.065416e-01     1.741089e-01     -3.766535e-02     
1.703506e-02     5.126215e-02     -1.314071e-01     3.336094e-02     3.418539e-01     
3.080860e-01     2.720810e-01     3.624963e-01     2.463018e-01     -1.714648e-01     
1.150726e-01     2.606227e-01     2.023573e-01     3.300345e-01     1.962091e-01     
1.690870e-01     2.370597e-01     -8.880661e-02     3.409306e-01     1.669341e-01     
1.890903e-01     1.660503e-02     

0      
0      0      0      0      0      0      0      0      0      0      
0      0      0      0      0      0      0      0      0      0      
0      0      0      0      0      0      0      0      0      0      
0      0      0      0      0      0      0      0      0      0      
0      0      0      0      0      0      0      0      0      0      
0      0      0      0      0      0      0      0      0      0      
0      0      0      0      0      0      0      0      0      0      
0      0      0      0      0      0      0      0      0      0      
0      0      0      0      0      0      0      0      0      0      
0      0      0      0      0      0      0      0      0      0      
0      0      0      0      0      0      0      0      0      0      
0      0      0      0      0      0      0      0      0      0      
0      0      0      0      0      0      0      0      0      0      
0      0      0      0      0      0      0      0      0      0      
0      0      0      0      0      0      0      0      0      0      
0      0      0      0      0      0      0      0      0      0      
0      0      0      0      0      0      0      0      0      0      
0      0      0      0      0      0      0      0      0      0      
0      0      0      0      0      0      0      0      0      0      
0      0      0      0      0      0      0      0      0      0      
0      0      0      0      0      0      0      0      0      0      
0      0      0      0      0      0      0      0      0      0      
0      0      0      0      0      0      0      0      0      0      
0      0      0      0      0      0      0      0      0      0      
0      0      0      0      0      0      0      0      0      0      
0      0      0      0      0      0      0      0      0      0      
0      0      0      0      0      0      0      0      0      0      
0      0      0      0      0      0      0      0      0      0      
0      0      0      0      0      0      0      0      0      0      
0      0      0      0      0      0      0      0      0      0      
0      0      0      0      0      0      0      0      0      0      
0      0      0      0      0      0      0      0      0      0      
0      0      0      0      0      0      0      0      0      0      
0      0      0      0      0      0      0      0      0      0      
0      0      0      0      0      0      0      0      0      0      
0      0      0      0      0      0      0      0      0      0      
0      0      0      0      0      0      0      0      0      0      
0      0      0      0      0      0      0      0      0      0      
0      0      0      0      0      0      0      0      0      0      
0      0      0      0      0      0      0      0      0      0      
0      0      0      0      0      0      0      0      0      0      
0      0      0      0      0      0      0      0      0      0      
0      0      0      0      0      0      0      0      0      0      
0      0      0      0      0      0      0      0      0      0      
0      0      0      0      0      0      0      0      0      0      
0      0      0      0      0      0      0      0      0      0      
0      0      0      0      0      1      1      1      1      1      
1      1      1      1      1      1      1      1      1      1      
1      1      1      1      1      1      1      1      1      1      
1      1      1      1      1      1      1      1      1      1      
1      1      1      1      1      1      1      1      1      1      
1      1      1      1      1      1      1      1      1      1      
1      1      1      1      1      1      1      1      1      1      
1      1      1      1      1      1      1      1      1      1      
1      1      1      1      1      1      1      1      1      1      
1      1      1      1      1      1      1      1      1      1      
1      1      1      1      1      1      1      1      1      1      
1      1      1      1      1      1      1      1      1      1      
1      1      1      1      1      1      1      1      1      1      
1      1      1      1      1      1      1      1      1      1      
1      1      1      1      1      1      1      1      1      1      
1      1      1      1      1      1      1      1      1      1      
1      1      1      1      1      1      1      1      1      1      
1      1      1      1      1      1      1      1      1      1      
1      1      1      1      1      1      1      1      1      1      
1      1      1      1      1      1      1      1      1      1      
1      1      1      1      1      1      1      1      1      1      
1      1      1      1      1      1      1      1      1      1      
1      1      1      1      1      1      1      1      1      1      
1      1      1      1      1      1      1      1      1      1      
1      1      1      1      1      1      1      1      1      

1      2      3      16      
3      2      1      4      
4      3      2      30      
4      2      1      44      
8      9      10      12      
10      9      8      11      
11      10      9      33      
11      8      10      48      
8      12      10      97      
16      3      1      17      
1      16      17      79      
1      2      16      44      
18      19      20      52      
20      19      18      21      
21      20      19      44      
22      23      24      31      
24      23      22      12      
22      24      12      97      
25      26      27      82      
27      26      25      28      
28      27      26      57      
29      4      6      44      
6      4      29      30      
29      30      4      2      
29      2      4      44      
29      30      2      21      
21      2      29      44      
23      31      32      24      
32      31      23      18      
18      32      31      52      
24      31      32      81      
22      31      24      81      
11      33      9      25      
10      33      11      48      
25      11      33      82      
34      35      36      38      
36      35      34      37      
37      36      35      48      
37      35      34      83      
34      35      38      129      
36      38      35      51      
39      40      41      37      
41      40      39      42      
42      41      40      50      
42      40      39      107      
37      40      41      48      
39      40      37      43      
43      40      37      83      
39      40      43      61      
5      44      20      29      
20      44      5      45      
45      20      44      52      
45      44      5      46      
4      44      1      7      
7      4      44      6      
7      44      1      77      
1      44      16      79      
2      16      44      19      
29      5      44      6      
29      44      20      21      
16      44      19      86      
2      19      44      21      
19      44      20      52      
5      44      6      7      
5      44      7      77      
44      46      45      52      
5      46      44      77      
38      46      47      129      
47      46      38      45      
45      46      38      52      
11      48      33      50      
10      33      48      41      
33      48      41      50      
10      41      48      36      
10      48      8      97      
11      8      48      93      
36      48      24      51      
24      48      36      10      
10      24      48      97      
41      48      36      37      
35      48      36      51      
37      48      35      40      
35      40      48      135      
35      37      40      83      
41      48      40      50      
42      41      50      33      
42      50      40      107      
40      50      48      135      
42      33      50      82      
11      48      50      93      
11      50      33      82      
38      51      32      52      
32      51      38      24      
24      32      51      81      
24      51      38      36      
24      51      48      97      
48      51      35      135      
35      51      38      129      
46      52      44      77      
45      52      32      20      
32      52      45      38      
51      52      38      129      
32      52      51      81      
32      20      52      18      
19      44      52      86      
18      19      52      31      
31      52      32      81      
19      52      31      53      
53      52      31      81      
19      52      53      86      
55      56      42      107      
42      56      55      54      
54      42      56      26      
26      42      56      82      
26      56      54      57      
56      57      26      82      
54      26      57      58      
54      57      56      62      
58      26      57      28      
26      57      27      82      
61      43      39      60      
39      61      60      107      
40      61      39      107      
43      61      40      83      
56      62      57      106      
63      64      65      79      
65      64      63      66      
66      65      64      84      
66      64      63      69      
68      69      53      104      
53      69      68      63      
63      53      69      86      
63      69      68      66      
66      69      68      87      
63      69      64      86      
66      64      69      98      
73      74      75      72      
75      74      73      76      
76      75      74      97      
76      74      73      104      
72      74      75      93      
73      74      72      95      
1      78      77      79      
77      78      1      7      
1      77      44      79      
52      77      46      113      
44      77      52      86      
63      79      16      86      
16      79      63      65      
65      16      79      17      
65      79      64      84      
63      64      79      86      
16      79      44      86      
44      79      77      86      
78      79      80      123      
80      79      78      1      
1      80      79      17      
78      77      79      123      
17      79      65      13      
80      79      17      13      
80      79      13      84      
13      79      65      84      
53      81      76      104      
76      81      53      31      
31      76      81      22      
53      52      81      86      
76      81      22      97      
22      81      24      97      
24      81      51      97      
51      81      52      129      
27      82      57      59      
57      82      56      106      
27      82      59      70      
70      27      82      11      
70      82      59      92      
59      82      57      92      
56      82      50      106      
50      82      56      42      
42      56      50      107      
26      42      82      33      
26      33      82      25      
11      27      82      25      
11      82      70      93      
11      50      82      93      
40      83      61      105      
49      83      35      120      
35      83      49      34      
34      49      35      129      
83      34      37      43      
35      83      40      120      
15      84      67      102      
67      84      15      14      
14      67      84      98      
14      84      15      13      
65      84      66      14      
14      65      84      13      
14      84      66      98      
66      84      64      98      
85      84      15      102      
15      84      85      80      
80      15      84      13      
80      84      85      123      
64      84      79      123      
52      86      77      113      
77      86      79      136      
64      86      69      136      
79      86      64      136      
63      86      16      53      
53      86      16      19      
69      86      53      81      
81      86      52      113      
69      81      53      104      
69      86      81      113      
66      87      68      88      
88      66      87      98      
88      87      68      89      
69      87      66      98      
68      87      69      104      
68      89      87      73      
68      73      87      104      
57      92      82      106      
82      92      70      71      
82      92      71      106      
70      82      71      93      
70      93      75      11      
75      93      70      72      
72      93      70      71      
72      93      71      95      
71      93      82      50      
50      71      93      94      
50      82      71      106      
11      93      75      8      
71      93      94      109      
50      94      93      135      
50      71      94      106      
48      50      93      135      
75      8      93      97      
48      93      8      97      
91      95      71      119      
71      95      91      72      
93      95      72      74      
71      95      93      109      
74      95      73      90      
90      74      95      109      
90      73      74      104      
72      73      95      96      
75      97      93      74      
74      97      93      135      
75      8      97      22      
93      97      48      135      
74      97      81      76      
81      97      74      51      
51      74      81      115      
51      97      74      135      
76      81      74      104      
76      97      22      75      
48      97      51      135      
10      24      97      12      
12      97      8      22      
66      98      88      99      
99      66      98      14      
88      98      87      116      
67      84      98      102      
64      69      98      117      
87      98      69      117      
64      98      84      102      
67      102      98      111      
85      84      102      123      
90      73      104      87      
90      104      74      114      
87      104      90      114      
76      104      73      68      
74      104      81      115      
69      104      87      128      
53      104      76      68      
69      81      104      113      
40      83      105      120      
40      105      61      107      
50      106      94      107      
56      106      50      107      
40      107      94      105      
94      107      40      50      
50      40      94      135      
42      107      39      55      
55      107      39      60      
105      107      94      108      
40      105      94      153      
61      107      105      108      
94      109      93      135      
71      109      94      119      
95      109      71      119      
93      109      95      74      
90      74      109      114      
90      109      95      133      
93      109      74      135      
98      111      102      117      
67      102      111      103      
67      111      98      101      
102      111      103      139      
67      103      111      101      
69      113      104      128      
81      104      113      115      
46      52      113      129      
46      113      77      112      
112      113      77      136      
46      113      112      129      
77      113      86      136      
52      81      113      129      
86      113      69      136      
109      114      74      115      
90      114      109      133      
74      114      104      115      
104      114      87      128      
81      115      113      129      
104      113      115      128      
51      74      115      135      
51      115      81      129      
98      116      111      117      
111      116      98      100      
100      111      116      140      
100      98      111      101      
100      116      98      88      
87      116      98      117      
69      87      117      128      
87      116      117      128      
64      117      98      102      
69      117      64      136      
102      117      111      137      
111      117      116      118      
118      117      116      128      
111      118      116      140      
111      117      118      137      
94      71      119      134      
94      119      109      153      
95      109      119      133      
71      91      119      134      
35      120      40      135      
40      120      105      153      
83      105      120      127      
115      120      121      49      
121      120      115      109      
109      121      120      153      
109      115      121      114      
109      120      115      135      
115      120      49      35      
35      115      120      135      
35      49      115      129      
121      49      120      127      
121      115      49      126      
83      120      49      127      
111      122      103      138      
103      122      111      101      
101      103      122      110      
101      122      111      140      
103      110      101      67      
117      123      64      136      
64      123      117      102      
102      64      123      84      
102      123      117      124      
124      123      117      150      
102      124      117      137      
84      123      80      79      
85      80      123      78      
64      123      79      136      
77      79      123      136      
49      126      115      129      
121      115      126      128      
121      126      49      127      
121      126      127      142      
105      120      127      153      
104      128      115      114      
113      115      128      112      
112      115      128      126      
112      113      115      129      
112      128      113      136      
69      113      128      136      
69      128      117      136      
114      128      116      87      
116      128      114      118      
118      128      114      152      
117      128      118      152      
112      126      128      152      
112      115      126      129      
121      128      126      152      
115      128      121      114      
114      128      121      152      
35      129      115      51      
51      115      35      135      
38      34      129      47      
34      49      129      47      
49      129      47      46      
46      129      38      52      
109      133      114      121      
121      109      133      153      
121      133      114      142      
109      119      133      153      
131      134      119      149      
119      134      131      94      
94      131      119      153      
94      134      131      141      
115      135      74      109      
94      109      135      153      
94      135      40      153      
40      135      120      153      
123      136      117      150      
128      136      112      117      
117      112      128      152      
117      136      112      150      
111      137      138      139      
138      137      111      118      
118      138      137      146      
118      111      138      140      
102      137      111      139      
118      137      117      143      
117      137      124      150      
139      138      111      103      
100      111      140      101      
138      140      111      122      
108      141      131      149      
131      141      108      94      
94      108      131      105      
131      141      134      149      
142      127      121      132      
121      132      127      153      
121      142      132      133      
126      127      142      147      
126      142      121      152      
121      142      114      152      
121      133      132      153      
137      143      118      144      
144      118      137      146      
144      143      118      152      
117      118      143      152      
117      143      137      150      
112      143      126      152      
126      143      112      125      
125      126      143      145      
125      143      112      150      
145      143      125      150      
126      145      125      148      
126      143      145      147      
144      118      146      151      
126      147      142      152      
143      147      126      152      
145      126      147      148      
119      131      149      133      
143      150      117      112      
112      117      143      152      
124      150      137      145      
137      150      143      145      
146      151      118      130      
144      118      151      152      
130      151      118      114      
114      151      118      152      
151      152      114      142      
142      151      152      144      
144      152      142      147      
144      152      147      143      
120      135      109      153      
121      127      120      153      
94      105      131      153      
131      149      133      132      
132      133      131      153      
131      133      119      153      
131      153      105      127      
131      153      127      132      
4      3       1      4      
8      9       11      8      
8      12       9      8      
3      16       17      3      
1      3       17      1      
3      2       16      3      
19      21       18      19      
22      23       12      22      
28      27       25      28      
6      30       4      6      
4      30       3      4      
3      30       2      3      
2      30       21      2      
31      18       23      31      
31      23       22      31      
25      11       9      25      
7      4       1      7      
2      19       16      2      
2      21       19      2      
6      4       7      6      
19      18       31      19      