title = " tecplot file for process Mesh " 
variables = "x",  "y", "z", "cell_type" 
zone N = 151 E = 705 DATAPACKING = BLOCK,  VARLOCATION = ([4]=CELLCENTERED), ZONETYPE=FETETRAHEDRON 
2.326277e-01     
3.000000e-01     2.468201e-01     2.000000e-01     5.080864e-02     -3.540247e-02     
4.917966e-02     0.000000e+00     1.000000e-01     1.332320e-01     1.489808e-01     
5.000000e-01     4.032532e-01     5.000000e-01     5.000000e-01     4.138776e-01     
5.000000e-01     5.000000e-01     5.000000e-01     4.129854e-01     3.444150e-01     
4.295167e-01     4.300614e-01     4.000000e-01     4.128369e-01     5.000000e-01     
5.000000e-01     5.000000e-01     5.000000e-01     4.145841e-01     5.000000e-01     
-4.722246e-02     5.000000e-01     5.000000e-01     4.163453e-01     3.368256e-01     
5.000000e-01     5.000000e-01     5.000000e-01     4.303613e-01     5.000000e-01     
5.000000e-01     5.000000e-01     4.106917e-01     5.000000e-01     4.213862e-01     
4.235157e-01     5.000000e-01     4.208522e-01     4.037152e-01     5.000000e-01     
5.000000e-01     4.198511e-01     4.039898e-01     5.000000e-01     5.022342e-02     
-6.869719e-02     -9.207013e-03     2.179737e-01     1.641138e-01     2.571796e-01     
7.682920e-02     4.807595e-02     2.233532e-01     2.693724e-01     3.275843e-01     
1.014158e-01     1.038279e-01     1.501960e-01     -8.199876e-03     -9.600407e-03     
-6.867730e-02     1.355498e-01     9.603820e-02     1.950377e-01     9.913592e-02     
5.342889e-02     4.852548e-03     9.838253e-03     -2.876668e-02     1.303272e-01     
7.029767e-02     5.775749e-02     3.348266e-01     2.894323e-01     2.937652e-01     
2.397050e-01     1.477181e-01     1.781592e-01     1.592226e-01     2.353253e-01     
1.749584e-01     7.451989e-03     2.955133e-01     3.257731e-01     4.108916e-01     
3.657682e-01     3.230947e-01     4.164252e-01     4.191087e-01     4.139700e-01     
5.000000e-01     4.127968e-01     5.000000e-01     3.147205e-01     1.987211e-01     
1.016471e-01     -2.952837e-02     -1.185787e-01     3.797276e-01     7.343925e-04     
8.497506e-02     2.608432e-01     3.566587e-01     3.462075e-01     2.385831e-01     
1.761356e-01     3.063264e-01     3.542714e-01     3.138869e-01     2.550536e-01     
3.571105e-01     2.925369e-01     3.377007e-01     2.833963e-01     2.691185e-01     
2.888664e-01     1.826480e-01     1.706483e-01     2.332139e-01     3.693300e-02     
-3.245935e-02     3.991298e-02     -1.117969e-02     9.265160e-02     2.109819e-01     
1.156640e-01     1.576681e-01     3.342766e-01     4.192457e-01     2.447976e-01     
1.861441e-01     1.016838e-01     2.496945e-01     2.742418e-01     1.062512e-01     
3.612759e-01     2.626427e-01     1.859918e-01     2.500251e-03     1.856247e-01     

-5.000000e-01     
-5.000000e-01     -4.161305e-01     -5.000000e-01     -4.172929e-01     -5.000000e-01     
-5.000000e-01     -5.000000e-01     -5.000000e-01     -5.000000e-01     -4.166559e-01     
-3.377257e-01     -3.394736e-01     -4.000000e-01     -3.000000e-01     -2.358569e-01     
-2.336705e-01     -2.000000e-01     -1.328526e-01     -1.355658e-01     -4.186515e-01     
-5.000000e-01     -4.306907e-01     -5.000000e-01     -5.000000e-01     -4.146039e-01     
-5.000000e-01     -4.161818e-01     -5.000000e-01     -5.000000e-01     -5.000000e-01     
-4.148621e-01     -4.172851e-01     -5.000000e-01     -5.000000e-01     -5.000000e-01     
-4.299545e-01     -5.000000e-01     -3.369169e-01     -2.840612e-01     -2.461096e-01     
-3.266578e-01     -2.596206e-01     -2.208650e-01     -1.693040e-01     -3.949884e-01     
-3.650669e-01     -4.188956e-01     -3.599188e-01     -2.718085e-01     -2.263306e-01     
-3.294742e-01     -3.871211e-01     -2.077479e-01     -1.508035e-01     -5.000000e-01     
-5.000000e-01     -4.028995e-01     -4.098891e-01     -5.000000e-01     -5.000000e-01     
-4.238832e-01     -5.000000e-01     -5.000000e-01     -4.145036e-01     -5.000000e-01     
-4.061212e-01     -5.000000e-01     -5.000000e-01     -5.000000e-01     -4.042089e-01     
-5.000000e-01     -2.490832e-01     -2.829525e-01     -3.295884e-01     -3.361127e-01     
-2.636618e-01     -3.335169e-01     -2.789418e-01     -2.396465e-01     -7.042014e-02     
-5.278798e-02     -1.695197e-01     -2.636171e-01     -2.766669e-01     -3.329440e-01     
-2.334396e-01     -3.607857e-01     -2.165849e-01     -1.672319e-01     -1.192238e-01     
-1.189586e-01     -1.273732e-01     -1.208096e-01     -1.744448e-01     -3.006659e-01     
-4.140831e-01     -5.000000e-01     -1.573658e-01     -2.898473e-01     -1.252840e-01     
-1.092533e-01     -1.369053e-01     -6.244155e-02     -3.953080e-01     -4.032024e-01     
-4.001285e-01     -4.127798e-01     -5.000000e-01     -4.308062e-01     -3.722498e-01     
-1.867729e-01     -1.980784e-01     -3.337644e-01     -4.233905e-01     -3.507507e-01     
-2.955734e-01     -9.604617e-02     -1.913940e-01     -2.066715e-01     -1.914807e-01     
-3.383362e-01     -2.065641e-01     -3.077736e-01     -3.924305e-01     -3.200275e-01     
-3.071629e-01     -3.764987e-01     -1.757973e-01     -2.411437e-01     -3.232240e-01     
-3.271123e-01     -2.741064e-01     -3.218524e-01     -3.229198e-01     -2.649112e-01     
-3.183128e-01     -2.747160e-01     -2.652752e-01     -3.621987e-01     -2.788453e-01     
-1.625679e-01     -1.889891e-01     -1.474767e-01     -1.160611e-01     -2.351143e-01     
-3.404361e-01     -3.426203e-01     -1.634368e-01     -2.701045e-01     -3.464308e-01     

4.129527e-01     
5.000000e-01     5.000000e-01     5.000000e-01     5.000000e-01     4.167737e-01     
4.323314e-01     5.000000e-01     5.000000e-01     4.164449e-01     5.000000e-01     
4.017828e-01     5.000000e-01     5.000000e-01     5.000000e-01     5.000000e-01     
4.128163e-01     5.000000e-01     4.131198e-01     5.000000e-01     5.000000e-01     
4.284600e-01     5.000000e-01     5.000000e-01     2.393573e-01     2.449809e-01     
2.000000e-01     1.469166e-01     3.000000e-01     1.376871e-01     1.000000e-01     
5.000000e-01     3.431063e-01     4.000000e-01     3.405798e-01     4.000993e-01     
4.294241e-01     5.000000e-01     9.398918e-02     8.771642e-02     1.256384e-01     
1.903806e-01     3.317514e-01     3.563160e-01     3.243804e-01     3.914377e-01     
4.740398e-02     4.866508e-02     1.437621e-01     2.851830e-01     2.333177e-01     
2.904800e-01     2.928557e-01     1.673827e-01     1.431922e-01     1.373134e-01     
1.365092e-01     1.192813e-01     3.565691e-01     3.264322e-01     3.303222e-01     
3.959635e-01     3.391143e-01     2.312251e-01     2.822506e-01     2.852043e-01     
1.777201e-01     2.390307e-01     1.568161e-01     2.358618e-01     3.008586e-01     
3.275999e-01     5.000000e-01     4.229714e-01     5.000000e-01     5.000000e-01     
5.000000e-01     5.000000e-01     4.185878e-01     5.000000e-01     5.000000e-01     
4.203130e-01     5.000000e-01     5.000000e-01     4.075388e-01     5.000000e-01     
5.000000e-01     4.195762e-01     4.140038e-01     5.000000e-01     5.000000e-01     
4.054611e-01     3.985726e-01     4.137085e-01     5.000000e-01     4.114413e-01     
2.105416e-01     1.755449e-01     4.157073e-01     1.990905e-01     2.072431e-01     
2.360632e-01     3.152914e-01     3.277753e-01     3.998880e-01     2.091420e-01     
2.894633e-01     2.099598e-01     2.383139e-01     9.123681e-02     4.146318e-01     
4.073860e-01     4.251290e-01     3.403280e-01     3.232070e-01     4.227835e-01     
3.106343e-01     3.021365e-01     2.524790e-01     3.421476e-01     2.641652e-01     
2.531233e-01     1.600270e-01     1.200665e-01     1.984327e-01     3.020448e-01     
2.084386e-01     2.875744e-01     3.202302e-01     3.498088e-01     1.703431e-01     
2.505627e-01     2.813638e-01     3.397126e-01     3.396144e-01     2.316646e-01     
2.358952e-01     1.578260e-01     2.536369e-01     2.186620e-01     1.350745e-01     
1.287147e-01     2.219312e-01     3.442910e-01     2.222330e-01     3.358356e-01     
1.805792e-01     1.551217e-01     2.169463e-01     2.163492e-01     1.524600e-01     


0      
0      0      0      0      0      0      0      0      0      0      
0      0      0      0      0      0      0      0      0      0      
0      0      0      0      0      0      0      0      0      0      
0      0      0      0      0      0      0      0      0      0      
0      0      0      0      0      0      0      0      0      0      
0      0      0      0      0      0      0      0      0      0      
0      0      0      0      0      0      0      0      0      0      
0      0      0      0      0      0      0      0      0      0      
0      0      0      0      0      0      0      0      0      0      
0      0      0      0      0      0      0      0      0      0      
0      0      0      0      0      0      0      0      0      0      
0      0      0      0      0      0      0      0      0      0      
0      0      0      0      0      0      0      0      0      0      
0      0      0      0      0      0      0      0      0      0      
0      0      0      0      0      0      0      0      0      0      
0      0      0      0      0      0      0      0      0      0      
0      0      0      0      0      0      0      0      0      0      
0      0      0      0      0      0      0      0      0      0      
0      0      0      0      0      0      0      0      0      0      
0      0      0      0      0      0      0      0      0      0      
0      0      0      0      0      0      0      0      0      0      
0      0      0      0      0      0      0      0      0      0      
0      0      0      0      0      0      0      0      0      0      
0      0      0      0      0      0      0      0      0      0      
0      0      0      0      0      0      0      0      0      0      
0      0      0      0      0      0      0      0      0      0      
0      0      0      0      0      0      0      0      0      0      
0      0      0      0      0      0      0      0      0      0      
0      0      0      0      0      0      0      0      0      0      
0      0      0      0      0      0      0      0      0      0      
0      0      0      0      0      0      0      0      0      0      
0      0      0      0      0      0      0      0      0      0      
0      0      0      0      0      0      0      0      0      0      
0      0      0      0      0      0      0      0      0      0      
0      0      0      0      0      0      0      0      0      0      
0      0      0      0      0      0      0      0      0      0      
0      0      0      0      0      0      0      0      0      0      
0      0      0      0      0      0      0      0      0      0      
0      0      0      0      0      0      0      0      0      0      
0      0      0      0      0      0      0      0      0      0      
0      0      0      0      0      0      0      0      0      0      
0      0      0      0      0      0      0      0      0      0      
0      0      0      0      0      0      0      0      0      0      
0      0      0      0      0      0      0      0      0      0      
0      0      0      0      0      0      0      0      0      0      
0      0      0      0      0      0      0      0      0      0      
0      0      0      0      0      0      1      1      1      1      
1      1      1      1      1      1      1      1      1      1      
1      1      1      1      1      1      1      1      1      1      
1      1      1      1      1      1      1      1      1      1      
1      1      1      1      1      1      1      1      1      1      
1      1      1      1      1      1      1      1      1      1      
1      1      1      1      1      1      1      1      1      1      
1      1      1      1      1      1      1      1      1      1      
1      1      1      1      1      1      1      1      1      1      
1      1      1      1      1      1      1      1      1      1      
1      1      1      1      1      1      1      1      1      1      
1      1      1      1      1      1      1      1      1      1      
1      1      1      1      1      1      1      1      1      1      
1      1      1      1      1      1      1      1      1      1      
1      1      1      1      1      1      1      1      1      1      
1      1      1      1      1      1      1      1      1      1      
1      1      1      1      1      1      1      1      1      1      
1      1      1      1      1      1      1      1      1      1      
1      1      1      1      1      1      1      1      1      1      
1      1      1      1      1      1      1      1      1      1      
1      1      1      1      1      1      1      1      1      1      
1      1      1      1      1      1      1      1      1      1      
1      1      1      1      1      1      1      1      1      1      
1      1      1      1      1      1      1      1      1      1      
1      1      1      1      

1      2      3      105      
3      2      1      4      
1      3      4      11      
5      6      7      62      
7      6      5      8      
5      8      6      32      
5      7      8      9      
9      5      7      62      
10      11      4      9      
4      11      10      1      
1      11      10      59      
1      3      11      116      
10      11      9      62      
12      13      14      46      
14      13      12      15      
12      15      13      96      
16      17      18      99      
18      17      16      15      
16      15      17      96      
21      22      23      46      
23      22      21      24      
24      23      22      38      
24      22      21      36      
25      26      27      29      
27      26      25      28      
25      28      26      140      
25      27      28      30      
26      29      25      53      
30      27      28      31      
25      30      28      97      
30      31      28      110      
5      32      6      111      
33      34      35      46      
35      34      33      29      
33      35      29      53      
2      36      21      105      
21      36      2      24      
21      36      22      46      
23      37      14      46      
14      37      23      38      
23      38      37      22      
22      38      37      34      
23      22      37      46      
22      34      37      46      
42      39      40      49      
40      39      42      41      
42      40      41      100      
43      44      17      96      
17      44      43      45      
45      17      44      99      
45      44      43      50      
36      46      21      105      
22      46      36      35      
35      46      36      115      
22      46      35      34      
33      34      46      37      
33      46      35      53      
37      46      33      12      
12      37      46      14      
12      46      33      53      
23      46      14      13      
23      46      13      21      
12      13      46      96      
21      46      13      105      
28      48      47      110      
47      48      28      39      
28      47      39      49      
47      49      28      110      
39      28      49      42      
39      49      47      40      
40      49      47      124      
28      49      42      140      
42      49      40      100      
43      50      51      45      
51      50      43      52      
52      51      50      100      
52      50      43      96      
45      50      51      103      
44      50      45      103      
43      50      44      96      
52      53      26      140      
26      53      52      33      
33      26      53      29      
33      53      52      12      
35      53      46      115      
29      53      35      25      
26      53      25      140      
25      53      35      115      
41      54      51      100      
51      54      41      55      
55      51      54      101      
11      59      1      116      
10      1      59      60      
10      59      11      88      
60      59      10      62      
1      59      60      61      
61      59      60      65      
1      59      61      105      
60      62      63      107      
63      62      60      10      
10      63      62      7      
10      62      59      88      
60      59      62      107      
63      62      6      71      
6      62      63      7      
10      7      62      9      
9      5      62      11      
10      11      62      88      
5      62      11      76      
64      65      61      60      
61      65      64      66      
66      61      65      115      
66      65      64      125      
64      65      60      106      
60      65      59      128      
61      59      65      115      
56      67      68      70      
68      67      56      69      
69      68      67      106      
56      67      70      108      
68      70      67      107      
70      71      72      109      
72      71      70      63      
63      72      71      6      
63      71      70      107      
62      71      63      107      
6      71      62      111      
73      74      75      89      
75      74      73      76      
76      75      74      88      
76      74      73      77      
77      76      74      78      
77      74      73      112      
78      76      74      111      
78      74      77      79      
78      79      77      80      
80      79      77      112      
77      79      74      112      
78      74      79      111      
84      85      86      96      
86      85      84      87      
87      86      85      116      
87      85      84      113      
75      88      11      116      
11      88      75      76      
76      11      88      62      
76      88      74      62      
75      74      88      89      
11      88      59      116      
59      88      62      107      
75      89      88      116      
74      88      89      117      
90      89      87      113      
87      89      90      73      
73      87      89      75      
73      89      90      112      
87      89      75      116      
74      89      73      112      
90      92      81      112      
81      92      90      91      
91      92      90      113      
12      96      46      53      
13      46      96      105      
44      96      50      114      
52      96      12      53      
12      96      52      43      
43      12      96      17      
50      96      52      53      
17      12      96      15      
17      96      44      16      
16      44      17      99      
16      96      44      84      
16      15      96      13      
13      96      16      84      
53      96      46      114      
84      96      86      13      
13      96      86      105      
85      96      84      44      
86      96      85      105      
85      96      44      114      
84      85      44      99      
84      44      16      99      
66      97      25      115      
25      97      66      98      
98      25      97      30      
98      97      66      125      
28      97      30      110      
25      97      28      140      
17      99      45      19      
19      17      99      18      
19      99      45      103      
45      99      44      103      
44      99      85      120      
84      85      99      113      
84      99      95      113      
95      99      84      16      
16      95      99      20      
16      20      99      18      
20      99      18      19      
41      100      51      42      
42      100      51      52      
51      100      54      119      
41      54      100      40      
54      100      40      124      
52      42      100      140      
52      100      50      140      
51      50      100      119      
40      100      49      124      
42      49      100      140      
51      101      55      102      
102      51      101      103      
54      101      51      119      
102      103      45      51      
45      103      102      104      
104      45      103      19      
51      101      103      119      
51      103      50      119      
50      103      44      120      
44      103      99      120      
85      105      96      114      
86      105      85      116      
21      105      13      86      
46      96      105      114      
86      21      105      3      
1      105      61      36      
36      1      105      2      
36      105      61      115      
61      105      59      115      
1      59      105      116      
3      21      105      2      
3      105      86      116      
1      105      3      116      
36      46      105      115      
68      106      64      60      
64      106      68      69      
68      67      106      107      
60      68      106      107      
88      107      59      128      
62      107      88      135      
59      107      60      128      
67      106      107      137      
68      107      63      70      
63      107      68      60      
62      71      107      135      
70      107      71      108      
67      107      70      108      
107      108      67      131      
71      108      107      132      
70      108      71      109      
108      109      70      57      
70      108      57      56      
67      108      58      131      
58      108      67      56      
56      58      108      57      
49      110      47      124      
28      110      49      97      
28      48      110      31      
74      79      111      135      
74      111      76      62      
78      76      111      5      
5      76      111      62      
5      111      78      32      
5      62      111      6      
62      111      71      135      
83      112      93      80      
93      112      83      82      
82      112      83      81      
83      81      112      90      
83      90      112      73      
92      112      90      89      
89      92      112      129      
89      90      92      113      
73      112      83      77      
74      89      112      146      
77      112      83      80      
74      112      79      146      
80      112      93      79      
87      113      89      85      
85      89      87      116      
85      113      89      130      
94      113      91      95      
91      113      94      92      
92      113      94      144      
90      91      113      87      
89      113      92      144      
91      113      87      95      
95      113      87      84      
94      113      95      99      
94      113      99      120      
96      114      53      50      
46      53      114      115      
46      114      105      115      
85      105      114      126      
85      114      44      120      
44      114      50      120      
114      115      53      122      
105      115      114      126      
35      115      36      66      
66      35      115      25      
66      115      36      61      
66      115      65      97      
59      65      115      126      
59      115      105      126      
53      115      25      97      
53      97      25      140      
53      115      97      122      
65      97      115      122      
65      66      97      125      
85      116      105      126      
3      116      86      75      
75      3      116      11      
75      116      86      87      
85      89      116      130      
88      116      89      117      
59      105      116      126      
74      117      89      146      
88      117      74      135      
116      117      88      59      
59      116      117      126      
59      117      88      128      
89      117      116      130      
118      119      101      145      
101      119      118      103      
103      119      118      120      
54      101      119      123      
50      119      103      120      
118      120      119      121      
121      119      118      145      
121      120      119      139      
120      103      99      94      
113      120      94      144      
99      120      113      85      
85      114      120      126      
50      120      114      139      
85      120      113      130      
65      97      122      125      
65      122      115      126      
97      53      122      140      
115      122      114      126      
53      114      122      50      
50      114      122      139      
50      122      53      140      
119      123      101      145      
54      123      119      139      
54      100      124      139      
49      124      100      147      
110      124      49      147      
122      125      97      147      
65      125      122      126      
106      125      65      126      
65      125      106      64      
66      98      125      64      
120      126      114      139      
85      126      120      130      
59      126      117      128      
116      117      126      130      
85      116      126      130      
114      126      122      139      
125      126      106      127      
127      125      126      122      
127      106      125      148      
127      126      106      136      
106      126      65      128      
122      127      125      147      
122      126      127      139      
65      128      126      59      
106      126      128      136      
106      128      65      60      
117      128      126      136      
107      128      88      135      
88      128      117      135      
60      128      107      106      
89      92      129      144      
89      129      112      146      
120      130      126      139      
117      126      130      136      
89      130      113      144      
113      130      120      144      
117      130      89      129      
107      108      131      132      
107      131      67      137      
71      132      133      134      
133      132      71      107      
107      133      132      137      
107      71      133      135      
71      134      133      135      
133      135      134      79      
79      133      135      146      
79      135      134      111      
74      135      111      62      
79      135      74      146      
111      135      134      71      
62      74      135      88      
107      135      133      137      
74      135      117      146      
128      135      107      137      
117      135      128      137      
117      128      136      137      
121      136      130      139      
130      136      121      129      
129      130      136      117      
129      121      130      144      
129      136      121      149      
117      136      129      143      
126      130      136      139      
107      131      137      132      
136      137      128      106      
106      136      137      151      
106      137      128      107      
117      137      136      143      
67      106      137      151      
133      132      137      150      
131      137      132      150      
117      135      137      146      
133      137      135      146      
120      139      121      130      
119      121      139      123      
119      139      120      50      
121      120      130      144      
127      139      136      123      
136      139      127      126      
121      139      123      136      
119      121      123      145      
123      139      54      124      
119      54      139      100      
123      139      124      127      
127      139      124      147      
123      127      124      141      
100      124      139      147      
100      139      119      50      
50      100      139      122      
100      139      122      147      
50      100      122      140      
122      139      127      147      
97      140      122      147      
122      140      100      147      
50      140      53      52      
52      42      140      26      
26      42      140      28      
49      140      28      97      
49      140      97      147      
49      100      140      147      
124      141      127      148      
123      127      141      136      
141      123      136      142      
136      142      123      149      
136      141      142      138      
138      136      141      151      
127      141      136      148      
136      143      137      138      
138      137      136      151      
138      143      137      131      
117      137      143      146      
131      143      137      150      
129      144      130      89      
123      145      121      149      
89      146      117      129      
146      133      137      143      
137      143      133      150      
117      146      143      129      
127      147      124      148      
125      147      127      148      
147      97      49      110      
106      148      136      151      
136      148      106      127      
136      148      141      151      
121      149      136      123      
38      24       22      38      
38      22       34      38      
34      22       35      34      
34      35       29      34      
22      24       36      22      
36      24       2      36      
29      35       25      29      
29      25       27      29      
36      2       1      36      
1      2       4      1      
1      4       10      1      
10      4       9      10      
27      25       30      27      
27      30       31      27      
10      9       7      10      
7      9       8      7      
8      6       7      8      
22      36       35      22      
25      35       66      25      
66      35       36      66      
36      1       61      36      
36      61       66      36      