title = " tecplot file for process Mesh " 
variables = "x",  "y", "z", "cell_type" 
zone N = 168 E = 754 DATAPACKING = BLOCK,  VARLOCATION = ([4]=CELLCENTERED), ZONETYPE=FETETRAHEDRON 
2.383810e-01     
2.388790e-01     3.000000e-01     2.000000e-01     1.373247e-01     1.370275e-01     
1.000000e-01     5.142756e-02     0.000000e+00     5.155478e-02     4.145841e-01     
5.000000e-01     5.000000e-01     5.000000e-01     4.304725e-01     5.000000e-01     
5.000000e-01     4.138911e-01     5.000000e-01     5.000000e-01     5.000000e-01     
4.098849e-01     5.000000e-01     3.402390e-01     4.000000e-01     3.397702e-01     
4.280829e-01     5.000000e-01     4.098187e-01     5.000000e-01     3.986711e-01     
5.000000e-01     5.000000e-01     5.000000e-01     5.000000e-01     4.113895e-01     
5.000000e-01     5.000000e-01     5.000000e-01     5.000000e-01     3.994830e-01     
5.000000e-01     4.283365e-01     5.000000e-01     5.000000e-01     4.303613e-01     
4.122529e-01     5.000000e-01     4.221384e-01     4.235157e-01     4.208522e-01     
4.196692e-01     4.230521e-01     5.000000e-01     5.000000e-01     4.182933e-01     
5.000000e-01     4.179799e-01     4.167851e-01     4.073562e-01     5.343321e-02     
2.372490e-02     -3.315611e-02     1.728584e-01     2.777140e-01     2.245439e-01     
2.825865e-01     3.260115e-01     1.458173e-01     1.011689e-01     1.073171e-01     
5.037238e-02     2.869126e-01     2.839863e-01     1.501960e-01     1.742860e-01     
2.351653e-01     1.374968e-01     1.827557e-01     1.742046e-01     2.256724e-01     
1.986779e-01     2.284843e-01     2.583683e-01     3.209482e-01     1.180346e-01     
9.917837e-02     3.372304e-01     3.282220e-01     2.280630e-01     2.927288e-01     
3.219014e-01     1.101390e-01     1.125923e-01     3.567247e-01     3.351150e-01     
4.232745e-01     4.168254e-01     3.471469e-01     3.087477e-01     1.961318e-01     
7.397752e-02     1.312557e-01     2.432708e-02     1.653039e-01     1.007869e-01     
5.288504e-02     3.797276e-01     4.251245e-01     2.257497e-01     9.197105e-02     
3.245082e-01     3.524303e-01     3.179778e-01     3.469242e-01     2.825846e-01     
4.568436e-02     3.796425e-01     2.445006e-01     3.326454e-01     2.756920e-01     
3.216928e-01     2.291232e-01     1.260943e-01     1.030467e-01     3.377007e-01     
2.013146e-01     2.496232e-01     3.455114e-01     3.379978e-01     2.002770e-01     
2.854133e-01     3.162134e-02     2.312966e-01     1.713239e-01     3.693300e-02     
1.155761e-01     2.349369e-01     3.339947e-01     3.031765e-01     2.624738e-01     
1.504191e-01     5.218213e-02     2.789008e-01     3.438444e-02     1.088349e-01     
1.972600e-01     1.570651e-01     1.676496e-01     3.219331e-02     1.576681e-01     
1.696001e-01     7.905179e-02     2.110073e-01     1.559192e-01     3.412021e-01     
2.590701e-01     2.363186e-01     2.739562e-01     2.447976e-01     2.626427e-01     
2.306298e-01     -4.619762e-02     2.622141e-02     2.118781e-01     1.754286e-01     
3.579116e-01     1.856247e-01     
-5.000000e-01     
-4.147234e-01     -5.000000e-01     -5.000000e-01     -4.168882e-01     -5.000000e-01     
-5.000000e-01     -5.000000e-01     -5.000000e-01     -4.326681e-01     -5.000000e-01     
-5.000000e-01     -4.161818e-01     -5.000000e-01     -5.000000e-01     -5.000000e-01     
-4.188956e-01     -5.000000e-01     -4.181984e-01     -5.000000e-01     -4.156489e-01     
-5.000000e-01     -5.000000e-01     -4.176242e-01     -5.000000e-01     -5.000000e-01     
-5.000000e-01     -4.153699e-01     -5.000000e-01     -5.000000e-01     -5.000000e-01     
-5.000000e-01     -4.182065e-01     -4.304764e-01     -5.000000e-01     -2.351197e-01     
-2.350089e-01     -3.000000e-01     -2.000000e-01     -3.389313e-01     -3.385744e-01     
-4.000000e-01     -4.301559e-01     -3.266578e-01     -3.369169e-01     -2.840612e-01     
-2.232663e-01     -2.623326e-01     -3.958714e-01     -3.650669e-01     -3.599188e-01     
-3.890695e-01     -2.872865e-01     -3.333612e-01     -3.278680e-01     -3.884739e-01     
-3.318452e-01     -3.024566e-01     -3.862956e-01     -2.970397e-01     -3.401999e-01     
-4.261663e-01     -4.168183e-01     -5.000000e-01     -4.132821e-01     -5.000000e-01     
-5.000000e-01     -5.000000e-01     -5.000000e-01     -4.219029e-01     -5.000000e-01     
-5.000000e-01     -4.154012e-01     -3.309992e-01     -5.000000e-01     -4.098718e-01     
-5.000000e-01     -5.000000e-01     -4.115795e-01     -3.274000e-01     -5.000000e-01     
-4.039836e-01     -5.000000e-01     -4.084011e-01     -5.000000e-01     -5.000000e-01     
-4.035043e-01     -3.104766e-01     -2.618563e-01     -2.297387e-01     -2.213852e-01     
-1.725605e-01     -2.414973e-01     -3.030324e-01     -4.135243e-01     -5.000000e-01     
-3.076867e-01     -1.587812e-01     -4.298986e-01     -3.892964e-01     -4.097718e-01     
-4.249799e-01     -4.017245e-01     -4.183076e-01     -4.002265e-01     -4.243209e-01     
-5.000000e-01     -4.308062e-01     -2.891129e-01     -3.098123e-01     -3.822720e-01     
-3.075439e-01     -4.389718e-01     -5.000000e-01     -3.638362e-01     -3.715318e-01     
-3.176117e-01     -2.260029e-01     -3.394432e-01     -2.507894e-01     -2.734785e-01     
-2.457445e-01     -3.469664e-01     -2.963745e-01     -3.155017e-01     -3.077736e-01     
-3.179462e-01     -2.917544e-01     -1.704600e-01     -3.175963e-01     -2.051896e-01     
-3.092529e-01     -2.891629e-01     -2.843860e-01     -2.865481e-01     -3.232240e-01     
-3.422400e-01     -4.055738e-01     -2.938918e-01     -1.926404e-01     -1.215376e-01     
-1.863629e-01     -2.333157e-01     -3.525105e-01     -3.293514e-01     -3.193928e-01     
-3.455042e-01     -2.831383e-01     -3.348211e-01     -1.878436e-01     -2.747160e-01     
-2.359027e-01     -2.734712e-01     -1.631262e-01     -2.267822e-01     -2.154933e-01     
-2.300906e-01     -3.938057e-01     -3.265220e-01     -2.788453e-01     -3.426203e-01     
-2.381574e-01     -2.431931e-01     -1.703304e-01     -1.397422e-01     -2.401959e-01     
-4.391886e-01     -3.464308e-01     
-4.152538e-01     
-5.000000e-01     -5.000000e-01     -5.000000e-01     -5.000000e-01     -4.181532e-01     
-5.000000e-01     -4.342096e-01     -5.000000e-01     -5.000000e-01     1.376871e-01     
2.000000e-01     1.469166e-01     1.000000e-01     5.176183e-02     0.000000e+00     
4.866508e-02     -3.301221e-02     -4.950366e-02     -1.000000e-01     -1.478554e-01     
-1.338943e-01     -2.000000e-01     -5.000000e-01     -5.000000e-01     -4.176866e-01     
-4.300923e-01     -2.463848e-01     -2.345918e-01     -3.000000e-01     -3.384161e-01     
-4.000000e-01     -3.442961e-01     -4.300217e-01     -5.000000e-01     -5.000000e-01     
-4.142185e-01     -5.000000e-01     -5.000000e-01     -4.033167e-01     -5.000000e-01     
-5.000000e-01     -5.000000e-01     1.903806e-01     9.398918e-02     8.771642e-02     
-3.588129e-01     -3.353896e-01     -3.925448e-01     4.740398e-02     1.437621e-01     
-9.749084e-02     1.420023e-03     -9.511343e-02     -1.941307e-01     -2.948077e-01     
-2.937422e-01     -1.416553e-01     -1.961236e-01     -2.429433e-01     -5.000000e-01     
-3.990269e-01     -5.000000e-01     -3.290329e-01     -2.743597e-01     -2.302108e-01     
-3.312837e-01     -2.615847e-01     -1.586453e-01     -1.854388e-01     -2.452712e-01     
-1.523998e-01     -3.880747e-01     -5.000000e-01     1.568161e-01     1.100328e-01     
1.123584e-01     6.092387e-02     -3.874800e-01     -5.000000e-01     -1.126206e-01     
-1.671589e-01     -1.033622e-03     -5.940573e-02     -6.456296e-02     -5.564519e-02     
1.142486e-02     -4.054947e-01     -5.000000e-01     -5.000000e-01     -4.141189e-01     
-5.000000e-01     -5.000000e-01     -4.008383e-01     -1.728220e-02     5.405715e-02     
-3.322546e-01     -4.167074e-01     -3.256828e-01     -1.704207e-01     1.528624e-02     
9.460922e-02     -8.771877e-02     -3.724132e-02     -2.761386e-01     -3.525814e-01     
-3.437939e-01     9.123681e-02     -4.258819e-01     -4.026859e-01     -4.330288e-01     
-6.537041e-02     -1.158871e-01     -1.715377e-01     -2.470647e-01     2.473656e-02     
6.557520e-02     -4.294775e-01     -2.221125e-01     -3.445451e-01     -2.850476e-01     
-1.798691e-01     -3.176112e-01     -1.634586e-01     -2.951537e-01     1.200665e-01     
6.646995e-02     -1.147283e-02     -3.850297e-01     -1.450895e-01     -3.436130e-01     
-3.507183e-01     -6.230164e-02     -1.245410e-01     -3.395796e-01     1.703431e-01     
1.162524e-01     1.475814e-01     2.800556e-02     -2.520787e-01     -3.286317e-01     
-2.016649e-01     -2.496117e-01     -1.090523e-01     -1.575708e-01     -8.298573e-02     
-7.050786e-02     -2.246243e-02     -2.925726e-01     -1.351391e-01     1.578260e-01     
7.882730e-02     3.849417e-03     -5.282582e-02     -1.020221e-01     -7.383668e-02     
-6.724497e-02     7.599875e-02     8.454107e-02     1.350745e-01     1.551217e-01     
-2.083476e-01     -1.155453e-02     -4.453414e-02     -1.453962e-01     -4.251215e-01     
-2.170295e-01     1.524600e-01     

0      
0      0      0      0      0      0      0      0      0      0      
0      0      0      0      0      0      0      0      0      0      
0      0      0      0      0      0      0      0      0      0      
0      0      0      0      0      0      0      0      0      0      
0      0      0      0      0      0      0      0      0      0      
0      0      0      0      0      0      0      0      0      0      
0      0      0      0      0      0      0      0      0      0      
0      0      0      0      0      0      0      0      0      0      
0      0      0      0      0      0      0      0      0      0      
0      0      0      0      0      0      0      0      0      0      
0      0      0      0      0      0      0      0      0      0      
0      0      0      0      0      0      0      0      0      0      
0      0      0      0      0      0      0      0      0      0      
0      0      0      0      0      0      0      0      0      0      
0      0      0      0      0      0      0      0      0      0      
0      0      0      0      0      0      0      0      0      0      
0      0      0      0      0      0      0      0      0      0      
0      0      0      0      0      0      0      0      0      0      
0      0      0      0      0      0      0      0      0      0      
0      0      0      0      0      0      0      0      0      0      
0      0      0      0      0      0      0      0      0      0      
0      0      0      0      0      0      0      0      0      0      
0      0      0      0      0      0      0      0      0      0      
0      0      0      0      0      0      0      0      0      0      
0      0      0      0      0      0      0      0      0      0      
0      0      0      0      0      0      0      0      0      0      
0      0      0      0      0      0      0      0      0      0      
0      0      0      0      0      0      0      0      0      0      
0      0      0      0      0      0      0      0      0      0      
0      0      0      0      0      0      0      0      0      0      
0      0      0      0      0      0      0      0      0      0      
0      0      0      0      0      0      0      0      0      0      
0      0      0      0      0      0      0      0      0      0      
0      0      0      0      0      0      0      0      0      0      
0      0      0      0      0      0      0      0      0      0      
0      0      0      0      0      0      0      0      0      0      
0      0      0      0      0      0      0      0      0      0      
0      0      0      0      0      0      0      0      0      0      
0      0      0      0      0      0      0      0      0      0      
0      0      0      0      0      0      0      0      0      0      
0      0      0      0      0      0      0      0      0      0      
0      0      0      0      0      0      0      0      0      0      
0      0      0      0      0      0      0      0      0      0      
0      0      0      0      0      0      0      0      0      0      
0      0      0      0      0      0      0      0      0      0      
0      0      0      0      0      0      0      0      0      0      
0      0      0      0      0      1      1      1      1      1      
1      1      1      1      1      1      1      1      1      1      
1      1      1      1      1      1      1      1      1      1      
1      1      1      1      1      1      1      1      1      1      
1      1      1      1      1      1      1      1      1      1      
1      1      1      1      1      1      1      1      1      1      
1      1      1      1      1      1      1      1      1      1      
1      1      1      1      1      1      1      1      1      1      
1      1      1      1      1      1      1      1      1      1      
1      1      1      1      1      1      1      1      1      1      
1      1      1      1      1      1      1      1      1      1      
1      1      1      1      1      1      1      1      1      1      
1      1      1      1      1      1      1      1      1      1      
1      1      1      1      1      1      1      1      1      1      
1      1      1      1      1      1      1      1      1      1      
1      1      1      1      1      1      1      1      1      1      
1      1      1      1      1      1      1      1      1      1      
1      1      1      1      1      1      1      1      1      1      
1      1      1      1      1      1      1      1      1      1      
1      1      1      1      1      1      1      1      1      1      
1      1      1      1      1      1      1      1      1      1      
1      1      1      1      1      1      1      1      1      1      
1      1      1      1      1      1      1      1      1      1      
1      1      1      1      1      1      1      1      1      1      
1      1      1      1      1      1      1      1      1      1      
1      1      1      1      1      1      1      1      1      1      
1      1      1      1      1      1      1      1      1      1      
1      1      1      1      1      1      1      1      1      1      
1      1      1      1      1      1      1      1      1      1      
1      1      1      

1      2      3      73      
3      2      1      4      
1      4      2      79      
5      6      7      111      
7      6      5      4      
5      4      6      79      
8      9      10      62      
10      9      8      7      
7      8      10      111      
11      14      13      108      
13      14      11      12      
15      16      17      18      
17      16      15      14      
14      15      17      108      
18      17      15      50      
18      16      17      19      
19      18      16      20      
19      17      18      50      
19      18      20      52      
21      22      23      59      
23      22      21      20      
21      20      22      52      
24      25      26      27      
26      25      24      3      
24      26      3      73      
24      27      26      49      
24      25      27      43      
28      29      30      56      
30      29      28      23      
28      23      29      59      
31      32      33      49      
33      32      31      30      
30      31      33      56      
34      27      35      43      
35      27      34      32      
34      32      27      49      
36      37      38      109      
38      37      36      39      
36      39      37      98      
40      41      38      109      
38      41      40      42      
40      42      41      49      
43      35      34      42      
34      43      42      49      
35      43      27      25      
34      27      43      49      
24      43      27      49      
24      49      26      73      
27      26      49      31      
31      49      27      32      
26      49      31      99      
43      49      24      41      
41      43      49      42      
41      49      24      88      
42      49      40      34      
34      49      40      33      
33      34      49      32      
33      49      40      97      
31      49      33      56      
40      49      41      109      
13      17      50      108      
50      17      13      45      
13      50      45      51      
19      50      18      95      
15      50      17      108      
18      50      15      95      
45      13      51      44      
45      51      50      46      
45      51      46      44      
20      52      18      22      
22      52      18      113      
19      18      52      95      
19      52      20      21      
19      52      21      54      
21      52      22      59      
54      52      21      55      
55      52      21      59      
54      52      55      58      
49      56      31      99      
33      56      49      97      
28      56      33      57      
33      56      28      30      
30      31      56      29      
28      29      56      59      
31      56      29      99      
57      56      33      97      
28      56      57      59      
55      58      52      59      
58      59      55      60      
52      59      58      130      
28      59      57      55      
55      28      59      21      
55      59      57      60      
57      59      56      60      
21      28      59      23      
56      59      29      167      
22      59      52      113      
23      59      22      29      
29      59      22      167      
56      60      59      115      
57      60      56      97      
59      60      58      130      
10      63      62      9      
62      63      10      61      
10      62      61      111      
8      62      10      111      
64      65      66      105      
66      65      64      67      
67      66      65      68      
67      65      64      79      
66      65      68      167      
67      68      65      99      
69      70      66      82      
66      70      69      71      
71      66      70      105      
71      70      69      72      
72      70      69      103      
67      73      26      99      
26      73      67      1      
1      26      73      3      
1      73      67      79      
3      73      2      24      
1      2      73      79      
49      73      24      88      
26      73      49      99      
74      73      2      110      
2      73      74      24      
24      73      74      88      
75      76      77      138      
77      76      75      78      
78      77      76      101      
78      76      75      102      
64      79      1      67      
1      79      64      6      
6      1      79      4      
6      79      64      106      
67      79      73      65      
64      79      65      105      
65      79      73      123      
67      65      73      99      
73      79      2      110      
80      79      5      111      
5      79      80      2      
2      5      79      4      
2      79      80      110      
5      79      6      111      
81      82      66      100      
66      82      81      69      
69      82      81      103      
70      82      69      103      
66      82      70      105      
83      84      85      95      
85      84      83      81      
81      85      84      113      
81      84      83      103      
41      49      88      109      
41      88      24      74      
73      88      49      99      
41      88      74      89      
74      88      73      110      
89      41      88      109      
89      88      74      91      
90      91      74      110      
74      91      90      89      
89      91      90      92      
74      91      88      110      
89      88      91      118      
92      89      91      118      
80      61      94      111      
94      61      80      93      
83      95      85      96      
96      83      95      116      
96      95      85      18      
84      95      83      116      
85      95      84      113      
96      95      18      15      
85      18      95      113      
96      95      15      108      
15      95      50      108      
52      95      50      19      
50      95      52      53      
53      50      95      139      
53      95      52      112      
52      95      18      113      
33      57      97      40      
49      97      56      99      
57      97      40      48      
40      97      49      109      
40      48      97      109      
56      97      60      115      
36      98      37      118      
97      99      49      88      
56      99      97      115      
97      99      88      132      
49      97      88      109      
88      99      73      132      
26      99      31      67      
67      99      31      68      
73      99      65      132      
31      68      99      29      
65      99      68      167      
68      99      29      167      
29      99      56      167      
84      100      81      113      
81      100      84      82      
82      84      81      103      
82      100      84      144      
65      100      82      119      
82      100      65      66      
66      65      82      105      
66      100      65      167      
78      101      83      77      
83      101      78      86      
86      83      101      103      
86      101      78      87      
86      101      87      103      
78      87      101      76      
87      101      76      127      
78      87      76      102      
83      77      101      158      
77      76      101      158      
76      102      87      137      
87      86      103      104      
87      103      101      147      
83      81      103      86      
83      103      84      101      
84      101      103      147      
84      83      101      116      
81      103      86      69      
82      84      103      147      
69      103      86      72      
82      103      70      124      
72      103      86      104      
87      104      103      146      
65      105      79      123      
64      79      105      106      
66      105      71      64      
70      105      82      124      
71      64      105      106      
82      105      65      119      
64      106      71      107      
107      64      106      6      
79      105      106      149      
107      6      106      8      
6      79      106      111      
8      6      106      111      
13      17      108      14      
14      15      108      11      
15      108      11      96      
95      108      96      116      
50      108      95      116      
88      109      97      47      
47      88      109      118      
47      97      88      120      
47      109      97      48      
47      109      37      118      
37      109      47      48      
48      37      109      40      
40      37      109      38      
41      109      89      36      
36      41      109      38      
36      109      89      118      
89      109      88      118      
37      109      36      118      
79      94      110      135      
110      94      79      80      
79      80      94      111      
80      110      74      2      
74      110      80      90      
90      91      110      166      
88      110      91      132      
73      110      88      132      
79      110      73      123      
5      80      111      61      
5      61      111      10      
8      6      111      7      
8      111      106      62      
7      111      10      5      
95      112      53      139      
52      112      95      113      
52      113      59      130      
22      59      113      167      
114      113      85      81      
85      113      114      22      
22      85      113      18      
22      113      114      167      
84      113      95      112      
52      112      113      130      
81      113      100      114      
84      100      113      144      
114      113      100      167      
81      114      100      66      
99      115      56      167      
97      115      99      132      
59      115      60      130      
56      115      59      167      
108      116      50      126      
95      50      116      139      
83      116      96      158      
95      116      84      112      
101      116      83      158      
84      116      101      147      
95      116      112      139      
84      112      116      128      
36      118      89      92      
92      36      118      98      
92      118      91      129      
88      91      118      120      
47      88      118      120      
37      118      98      47      
47      118      98      129      
115      119      65      123      
65      119      115      100      
100      115      65      167      
100      119      115      130      
105      119      82      124      
65      119      105      123      
82      119      100      144      
88      120      97      132      
47      120      118      129      
91      118      120      129      
91      120      88      132      
119      122      115      130      
115      122      119      121      
121      119      115      123      
121      122      119      162      
65      123      73      132      
110      123      79      135      
73      123      110      132      
65      115      123      132      
121      119      123      149      
121      123      115      132      
79      123      105      149      
105      123      119      149      
105      124      70      125      
103      124      82      147      
70      124      103      146      
124      125      105      149      
70      125      124      145      
101      127      87      147      
76      87      127      137      
76      127      101      158      
84      112      128      144      
84      128      116      147      
91      129      120      141      
98      129      118      92      
119      130      100      144      
115      100      130      59      
115      130      122      60      
119      122      130      134      
100      59      115      167      
100      130      59      113      
113      130      112      144      
131      132      110      135      
110      132      131      91      
91      131      110      166      
110      132      123      135      
123      132      121      135      
99      132      115      65      
65      115      99      167      
119      134      124      162      
124      134      119      82      
82      124      134      147      
82      134      119      144      
119      134      130      144      
122      130      134      112      
122      134      119      162      
112      130      134      144      
112      134      122      157      
94      135      79      149      
79      135      123      149      
121      135      132      131      
131      121      135      162      
121      123      135      149      
110      131      135      166      
117      102      137      87      
137      102      117      136      
127      137      87      153      
76      137      127      168      
87      137      117      153      
77      138      76      158      
50      116      139      126      
141      129      120      140      
124      143      142      150      
142      143      124      125      
124      125      143      145      
124      142      125      149      
112      144      134      128      
84      112      144      113      
84      144      128      147      
128      144      134      147      
112      128      134      157      
100      144      130      113      
82      134      144      147      
84      82      144      147      
124      145      143      150      
70      145      124      146      
146      145      124      133      
124      133      145      150      
124      146      133      155      
103      87      146      147      
103      146      124      147      
124      134      147      155      
124      147      146      155      
146      147      87      148      
146      147      148      155      
87      148      147      127      
87      146      148      153      
128      147      134      148      
148      128      147      127      
148      134      128      157      
148      147      134      155      
128      147      127      116      
148      128      127      152      
101      147      116      127      
119      105      149      124      
135      149      125      142      
125      149      135      94      
105      106      149      125      
142      149      124      162      
135      149      142      162      
119      149      121      162      
121      149      135      162      
124      150      142      155      
124      133      150      155      
148      128      152      154      
148      152      127      153      
148      153      127      87      
117      87      153      133      
148      153      146      155      
87      146      153      133      
117      133      153      163      
133      146      153      155      
133      155      153      164      
150      155      133      164      
148      155      134      157      
122      157      134      165      
112      157      122      156      
148      157      128      154      
134      157      155      165      
148      155      157      154      
154      155      157      165      
127      158      76      168      
101      158      127      116      
116      158      127      159      
76      158      138      168      
83      77      158      96      
127      159      158      161      