title = " tecplot file for process Mesh " 
variables = "x",  "y", "z", "cell_type" 
zone N = 155 E = 716 DATAPACKING = BLOCK,  VARLOCATION = ([4]=CELLCENTERED), ZONETYPE=FETETRAHEDRON 
-5.000000e-01     
-5.000000e-01     -4.113460e-01     -5.000000e-01     -5.000000e-01     -4.138705e-01     
-5.000000e-01     -4.162747e-01     -5.000000e-01     -5.000000e-01     -4.158524e-01     
-5.000000e-01     -5.000000e-01     -5.000000e-01     -4.229687e-01     -5.000000e-01     
-5.000000e-01     -5.000000e-01     -5.000000e-01     -5.000000e-01     -4.185837e-01     
-5.000000e-01     -4.198408e-01     -4.211338e-01     -5.000000e-01     -4.149058e-01     
-5.000000e-01     -5.000000e-01     -4.176478e-01     -4.188366e-01     -4.054596e-01     
-4.174432e-01     -4.124296e-01     -5.000000e-01     -5.000000e-01     -4.075333e-01     
4.200367e-02     -9.031392e-03     -5.995058e-02     -9.147264e-03     -9.207013e-03     
-6.869719e-02     5.022342e-02     -2.463127e-01     -2.801921e-01     -2.601134e-01     
-3.341502e-01     -2.758446e-01     -2.361093e-01     -3.313112e-01     -5.733944e-02     
-1.066632e-01     -1.117001e-01     -1.509501e-01     -2.145795e-01     -2.323866e-01     
-1.650390e-01     -1.174383e-01     -2.248305e-01     -2.019927e-01     -3.203865e-01     
-2.301975e-01     -5.767558e-03     -4.244873e-03     5.037238e-02     9.917837e-02     
1.374968e-01     1.180346e-01     -1.286335e-01     -1.173383e-01     -1.634307e-01     
-3.942657e-01     -5.000000e-01     -4.032624e-01     -3.985716e-01     -4.039991e-01     
-4.073702e-01     -3.158608e-01     -3.537007e-01     -3.480101e-01     7.397752e-02     
1.501960e-01     1.011689e-01     1.312557e-01     2.432708e-02     -2.937004e-03     
-1.702191e-02     -1.449325e-01     -9.388576e-02     -3.949485e-01     -4.012454e-01     
-2.961233e-01     -4.146330e-01     -3.326272e-01     -3.376967e-01     -2.991160e-01     
-3.565180e-01     -3.233067e-01     -3.502059e-01     4.568436e-02     -2.274926e-01     
-2.042337e-01     -1.875370e-01     -3.023422e-01     -2.008274e-01     -2.745640e-01     
-6.117448e-02     -2.754078e-01     -1.584565e-01     -2.210977e-01     -3.751860e-03     
-5.147096e-02     -7.505978e-02     3.162134e-02     5.218213e-02     -4.938817e-02     
-3.474381e-01     -1.869388e-01     -2.956912e-01     -3.316247e-01     -5.687357e-02     
-1.347634e-01     -1.324063e-01     -3.205075e-01     -3.104070e-01     -2.711591e-01     
-3.546399e-01     -1.528662e-01     3.438444e-02     1.088349e-01     -4.118508e-02     
-1.288556e-01     3.219331e-02     -2.226762e-01     -2.376792e-01     -1.160884e-01     
-1.283116e-01     -1.985911e-01     -4.619762e-02     -1.466239e-01     -6.584375e-02     
2.622141e-02     -1.957481e-02     -2.383653e-01     -2.703984e-01     -1.455490e-01     
-1.324849e-01     -4.579973e-02     -8.187116e-02     -3.351896e-01     -2.431211e-01     
-2.607704e-01     -1.862195e-01     -1.919929e-01     -1.184857e-01     
-4.120689e-01     
-5.000000e-01     -5.000000e-01     -5.000000e-01     -4.148503e-01     -5.000000e-01     
-5.000000e-01     -5.000000e-01     -4.172805e-01     -5.000000e-01     -5.000000e-01     
-5.000000e-01     -4.166445e-01     -2.636376e-01     -2.829296e-01     -3.360925e-01     
-3.334971e-01     -2.490588e-01     -3.295694e-01     -2.396219e-01     -2.789189e-01     
-3.251314e-01     -3.900058e-01     -3.885426e-01     -2.334176e-01     -2.165609e-01     
-1.672063e-01     -4.161203e-01     -3.874447e-01     -3.840169e-01     -1.189335e-01     
-3.821111e-01     -5.000000e-01     -4.128241e-01     -3.214402e-01     -2.986385e-01     
-5.000000e-01     -4.167469e-01     -5.000000e-01     -5.000000e-01     -4.028995e-01     
-5.000000e-01     -5.000000e-01     -5.000000e-01     -4.289860e-01     -5.000000e-01     
-5.000000e-01     -4.175052e-01     -5.000000e-01     -5.000000e-01     -5.000000e-01     
-4.133069e-01     -5.000000e-01     -5.000000e-01     -4.137066e-01     -5.000000e-01     
-5.000000e-01     -4.074352e-01     -5.000000e-01     -4.140975e-01     -5.000000e-01     
-5.000000e-01     -5.000000e-01     -4.120401e-01     -5.000000e-01     -4.035043e-01     
-5.000000e-01     -5.000000e-01     -5.000000e-01     -3.970053e-01     -5.000000e-01     
-3.372304e-01     -2.324125e-01     -2.767875e-01     -1.273472e-01     -1.467599e-01     
-1.867207e-01     -3.209209e-01     -4.186062e-01     -4.249508e-01     -4.249799e-01     
-5.000000e-01     -4.219029e-01     -4.017245e-01     -4.183076e-01     -5.000000e-01     
-4.125561e-01     -4.016415e-01     -4.241828e-01     -3.311771e-01     -3.332027e-01     
-3.807663e-01     -2.913535e-01     -2.137908e-01     -3.607227e-01     -3.408730e-01     
-4.298556e-01     -5.000000e-01     -4.240284e-01     -3.176117e-01     -4.282821e-01     
-2.943101e-01     -4.120794e-01     -4.173945e-01     -3.187790e-01     -2.223731e-01     
-3.252928e-01     -3.373837e-01     -3.293066e-01     -2.212639e-01     -3.173463e-01     
-2.833599e-01     -3.593588e-01     -2.891629e-01     -2.333157e-01     -1.934466e-01     
-2.425458e-01     -3.196433e-01     -3.089671e-01     -3.662413e-01     -2.754262e-01     
-3.212259e-01     -3.572651e-01     -1.485078e-01     -2.861248e-01     -1.962442e-01     
-3.407985e-01     -1.510331e-01     -3.293514e-01     -3.193928e-01     -3.454984e-01     
-2.435818e-01     -1.878436e-01     -1.367538e-01     -1.870477e-01     -2.767448e-01     
-2.562685e-01     -6.445561e-02     -2.431931e-01     -2.178111e-01     -1.916077e-01     
-1.703304e-01     -1.540425e-01     -2.596275e-01     -2.478608e-01     -2.372986e-01     
-1.283313e-01     -1.308397e-01     -1.737764e-01     -2.679621e-01     -3.723038e-01     
-3.530604e-01     -2.027105e-01     -2.393590e-01     -1.601817e-01     
-1.456937e-01     
-2.000000e-01     -1.457775e-01     -1.000000e-01     -4.722725e-02     -4.724924e-02     
0.000000e+00     5.081917e-02     5.080336e-02     1.000000e-01     1.490320e-01     
2.000000e-01     1.489758e-01     5.341879e-02     9.602862e-02     9.912744e-02     
4.844494e-03     1.355396e-01     1.950294e-01     -2.877674e-02     9.828848e-03     
-9.002650e-02     9.963554e-02     2.806867e-03     2.396957e-01     1.781491e-01     
1.592121e-01     2.468152e-01     1.969401e-01     -9.431583e-02     1.749481e-01     
-1.936814e-01     -2.449652e-01     -2.448251e-01     -1.905254e-01     2.428277e-01     
2.899590e-02     4.687186e-02     2.759852e-02     8.402114e-02     1.192813e-01     
1.365092e-01     1.373134e-01     1.360649e-01     9.632148e-02     5.362963e-02     
9.926986e-02     9.827148e-03     -2.899072e-02     4.842534e-03     -1.542932e-01     
-1.884521e-01     -2.454988e-01     -1.655643e-01     1.794024e-01     2.408308e-01     
1.613115e-01     1.787115e-01     -2.404678e-01     -1.785075e-01     -1.909427e-01     
-1.294905e-01     -6.195801e-02     -1.228837e-01     -1.523998e-01     1.142486e-02     
6.092387e-02     -5.564519e-02     -6.285734e-02     7.710532e-03     5.839041e-02     
5.165750e-02     -1.286301e-01     -9.746187e-02     7.441303e-03     -9.251752e-02     
8.501758e-02     1.557527e-01     4.988613e-02     -2.399184e-01     9.460922e-02     
1.568161e-01     -1.854388e-01     -8.771877e-02     -3.724132e-02     -2.462603e-01     
-2.157014e-01     -9.245495e-02     9.188521e-02     -4.259460e-02     -1.428054e-01     
-1.061380e-01     -2.003570e-01     -3.136316e-02     2.375941e-01     6.341390e-02     
-1.495335e-01     -9.022320e-02     -4.481126e-02     6.557520e-02     -7.890762e-02     
-1.315150e-01     8.889247e-02     1.805366e-01     8.222970e-02     7.511149e-02     
6.678495e-02     -2.042522e-01     -2.163464e-01     -2.361199e-01     -2.466457e-01     
-1.643878e-01     -1.260736e-01     -6.230164e-02     -2.496117e-01     -2.293956e-01     
1.242502e-01     -2.639060e-02     -3.352824e-02     1.341087e-04     1.706430e-01     
1.478924e-01     7.665789e-02     -8.291304e-02     -1.278330e-01     -1.314117e-01     
-2.338076e-01     -1.529690e-01     -1.575708e-01     -8.298573e-02     -2.745400e-02     
-2.460004e-01     -1.351391e-01     4.869574e-02     -3.878390e-02     -8.925620e-02     
7.108794e-02     -9.710986e-02     -1.155453e-02     -1.537561e-02     -1.326620e-01     
-4.453414e-02     3.413638e-02     6.881271e-03     -7.374091e-02     -1.609111e-01     
-5.773290e-02     -7.355145e-02     -1.878917e-02     3.235405e-02     8.691461e-02     
2.044423e-01     6.437256e-02     -7.622989e-02     5.207872e-02     

0      
0      0      0      0      0      0      0      0      0      0      
0      0      0      0      0      0      0      0      0      0      
0      0      0      0      0      0      0      0      0      0      
0      0      0      0      0      0      0      0      0      0      
0      0      0      0      0      0      0      0      0      0      
0      0      0      0      0      0      0      0      0      0      
0      0      0      0      0      0      0      0      0      0      
0      0      0      0      0      0      0      0      0      0      
0      0      0      0      0      0      0      0      0      0      
0      0      0      0      0      0      0      0      0      0      
0      0      0      0      0      0      0      0      0      0      
0      0      0      0      0      0      0      0      0      0      
0      0      0      0      0      0      0      0      0      0      
0      0      0      0      0      0      0      0      0      0      
0      0      0      0      0      0      0      0      0      0      
0      0      0      0      0      0      0      0      0      0      
0      0      0      0      0      0      0      0      0      0      
0      0      0      0      0      0      0      0      0      0      
0      0      0      0      0      0      0      0      0      0      
0      0      0      0      0      0      0      0      0      0      
0      0      0      0      0      0      0      0      0      0      
0      0      0      0      0      0      0      0      0      0      
0      0      0      0      0      0      0      0      0      0      
0      0      0      0      0      0      0      0      0      0      
0      0      0      0      0      0      0      0      0      0      
0      0      0      0      0      0      0      0      0      0      
0      0      0      0      0      0      0      0      0      0      
0      0      0      0      0      0      0      0      0      0      
0      0      0      0      0      0      0      0      0      0      
0      0      0      0      0      0      0      0      0      0      
0      0      0      0      0      0      0      0      0      0      
0      0      0      0      0      0      0      0      0      0      
0      0      0      0      0      0      0      0      0      0      
0      0      0      0      0      0      0      0      0      0      
0      0      0      0      0      0      0      0      0      0      
0      0      0      0      0      0      0      0      0      0      
0      0      0      0      0      0      0      0      0      0      
0      0      0      0      0      0      0      0      0      0      
0      0      0      0      0      0      0      0      0      0      
0      0      0      0      0      0      0      0      0      0      
0      0      0      0      0      0      0      0      0      0      
0      0      0      0      0      0      0      0      0      0      
0      0      0      0      0      0      0      0      0      0      
0      0      0      0      0      0      0      0      0      0      
0      0      0      0      0      0      0      0      0      0      
0      0      0      0      0      0      0      0      0      0      
0      0      0      0      0      1      1      1      1      1      
1      1      1      1      1      1      1      1      1      1      
1      1      1      1      1      1      1      1      1      1      
1      1      1      1      1      1      1      1      1      1      
1      1      1      1      1      1      1      1      1      1      
1      1      1      1      1      1      1      1      1      1      
1      1      1      1      1      1      1      1      1      1      
1      1      1      1      1      1      1      1      1      1      
1      1      1      1      1      1      1      1      1      1      
1      1      1      1      1      1      1      1      1      1      
1      1      1      1      1      1      1      1      1      1      
1      1      1      1      1      1      1      1      1      1      
1      1      1      1      1      1      1      1      1      1      
1      1      1      1      1      1      1      1      1      1      
1      1      1      1      1      1      1      1      1      1      
1      1      1      1      1      1      1      1      1      1      
1      1      1      1      1      1      1      1      1      1      
1      1      1      1      1      1      1      1      1      1      
1      1      1      1      1      1      1      1      1      1      
1      1      1      1      1      1      1      1      1      1      
1      1      1      1      1      1      1      1      1      1      
1      1      1      1      1      1      1      1      1      1      
1      1      1      1      1      1      1      1      1      1      
1      1      1      1      1      1      1      1      1      1      
1      1      1      1      1      1      1      1      1      1      
1      1      1      1      1      

1      2      3      32      
3      2      1      4      
1      3      4      30      
5      4      6      30      
6      4      5      7      
5      6      7      24      
7      8      9      24      
9      8      7      10      
10      9      8      23      
11      12      13      29      
13      12      11      10      
11      13      10      23      
14      15      16      18      
16      15      14      17      
17      16      15      72      
17      15      14      21      
18      15      19      26      
19      15      18      16      
16      19      15      29      
14      15      18      77      
20      21      17      14      
17      21      20      22      
22      17      21      90      
22      21      20      74      
14      21      15      77      
17      15      21      72      
16      23      13      29      
13      23      16      9      
9      13      23      10      
9      23      16      24      
13      23      11      29      
10      11      23      8      
8      23      9      24      
11      23      8      47      
17      24      16      72      
16      24      17      9      
9      24      17      5      
16      24      23      72      
5      24      17      22      
9      24      5      7      
8      23      24      79      
8      24      7      6      
6      24      5      30      
8      24      6      99      
22      5      24      30      
22      24      17      90      
25      26      19      36      
19      26      25      18      
18      26      25      27      
15      26      18      77      
19      26      15      36      
18      26      27      77      
13      28      29      12      
29      28      13      19      
13      29      19      16      
16      23      29      15      
5      30      22      1      
1      5      30      4      
1      30      22      91      
22      30      24      90      
6      24      30      99      
6      30      3      97      
3      30      6      4      
1      3      30      32      
1      32      30      91      
3      30      32      97      
2      32      1      34      
34      32      1      35      
35      32      1      91      
15      19      36      29      
15      36      26      117      
15      29      36      78      
37      38      39      85      
39      38      37      40      
40      39      38      89      
40      38      37      81      
40      41      42      89      
42      41      40      43      
43      41      40      81      
44      45      46      103      
46      45      44      47      
47      46      45      79      
47      45      44      104      
46      48      49      103      
49      48      46      50      
50      49      48      99      
50      48      46      79      
51      52      53      87      
53      52      51      54      
54      52      51      88      
44      55      56      104      
56      55      44      57      
57      55      44      103      
59      60      61      80      
61      60      59      62      
62      61      60      97      
62      60      59      54      
62      60      54      88      
63      64      65      85      
65      64      63      51      
51      65      64      87      
51      64      63      88      
37      66      67      81      
67      66      37      68      
68      66      37      85      
69      70      49      101      
49      70      69      71      
71      49      70      103      
71      70      69      39      
39      70      69      63      
71      70      39      89      
63      70      69      88      
39      70      63      85      
15      72      23      78      
23      72      15      16      
23      72      24      79      
17      24      72      90      
17      72      21      90      
15      21      72      150      
73      74      22      20      
22      74      73      35      
35      22      74      91      
73      74      20      76      
20      74      21      76      
22      21      74      90      
75      76      21      94      
21      76      75      20      
21      76      74      94      
15      77      21      150      
26      77      15      117      
27      77      26      31      
26      31      77      117      
15      78      36      117      
29      78      15      23      
23      29      78      104      
72      78      15      117      
23      78      72      79      
48      79      50      99      
46      50      79      47      
46      79      48      45      
45      48      46      103      
45      79      48      96      
47      50      79      8      
47      79      45      104      
24      79      72      120      
50      79      8      99      
47      8      79      23      
8      79      24      99      
61      80      60      97      
43      81      67      82      
67      81      43      37      
37      81      43      40      
37      66      81      38      
66      81      38      100      
37      66      38      85      
38      81      40      41      
38      41      40      89      
38      81      41      100      
83      84      64      130      
64      84      83      65      
65      64      84      85      
65      83      64      87      
38      85      66      100      
63      85      37      39      
37      85      63      68      
68      85      63      65      
64      84      85      130      
63      64      85      70      
39      85      38      70      
70      85      38      131      
39      70      38      89      
64      70      63      88      
64      85      70      131      
64      87      83      129      
51      86      87      53      
87      86      51      65      
51      87      64      52      
52      87      64      113      
51      52      64      88      
64      70      88      131      
69      63      88      51      
69      88      70      101      
54      88      51      69      
69      54      88      62      
54      52      88      60      
52      88      60      109      
69      62      88      101      
60      88      62      101      
71      89      42      57      
42      89      71      39      
39      42      89      40      
71      70      89      103      
38      89      70      107      
38      41      89      107      
57      71      89      103      
57      89      42      58      
57      89      58      103      
22      90      74      91      
21      74      90      94      
24      90      30      99      
22      30      90      91      
90      91      92      125      
92      91      90      30      
30      92      91      97      
30      90      92      99      
22      91      35      1      
30      91      32      97      
21      94      90      150      
74      90      94      125      
79      96      45      78      
48      45      96      151      
48      96      79      120      
78      79      96      72      
78      45      79      104      
78      96      45      151      
3      97      32      33      
32      97      91      127      
91      97      92      127      
30      92      97      99      
98      97      3      61      
3      97      98      6      
6      97      98      99      
30      97      6      99      
61      97      3      33      
98      97      61      62      
98      97      62      92      
98      97      92      99      
62      92      97      60      
62      98      92      101      
60      92      97      108      
60      62      92      101      
60      97      80      108      
61      80      97      33      
33      97      32      80      
80      97      32      127      
24      90      99      120      
92      99      90      120      
48      79      99      120      
8      99      6      50      
24      99      79      120      
50      99      6      98      
50      99      98      49      
92      98      99      101      
49      99      98      101      
48      99      49      101      
66      100      85      114      
38      85      100      131      
41      38      100      107      
60      101      92      102      
88      101      60      102      
49      101      70      48      
48      70      49      103      
48      101      70      118      
69      101      49      62      
70      101      88      118      
99      101      48      92      
92      48      99      120      
92      101      48      118      
98      49      101      62      
88      101      102      118      
88      102      60      109      
92      60      102      108      
92      102      101      118      
70      89      103      123      
48      70      103      118      
71      49      103      46      
45      48      103      151      
46      103      71      44      
44      103      71      57      
44      45      103      55      
45      103      55      151      
44      45      55      104      
57      55      103      58      
55      103      58      122      
58      103      89      122      
78      104      95      152      
95      104      78      29      
23      104      78      79      
78      45      104      151      
23      104      79      47      
55      104      45      151      
41      89      107      122      
100      107      38      131      
70      107      89      123      
38      107      70      131      
60      102      108      109      
92      97      108      127      
80      108      97      127      
88      109      52      113      
88      102      109      136      
112      111      87      129      
87      111      112      52      
52      112      87      113      
52      111      112      109      
112      109      111      132      
112      52      109      113      
88      109      113      136      
88      113      52      64      
112      113      109      136      
64      113      87      129      
87      113      112      129      
85      114      100      131      
66      114      85      130      
112      111      116      132      
116      111      112      115      
112      115      111      129      
112      116      115      133      
72      78      117      96      
72      117      15      150      
96      117      72      150      
15      117      77      150      
88      118      102      136      
102      118      92      119      
102      118      119      145      
92      119      118      48      
92      102      119      125      
88      70      118      131      
119      118      48      96      
96      119      118      144      
96      48      119      120      
96      118      48      151      
48      118      103      151      
70      103      118      123      
119      120      48      92      
96      120      119      150      
92      119      120      90      
79      120      96      72      
119      120      90      150      
92      119      90      125      
72      120      96      150      
72      24      120      90      
72      90      120      150      
121      122      107      137      
107      122      121      41      
107      122      89      123      
103      122      55      105      
103      122      105      123      
55      103      105      151      
122      123      107      137      
89      123      122      103      
105      123      122      137      
103      123      105      118      
70      107      123      118      
107      118      70      131      
107      123      118      137      
105      118      123      137      
105      103      118      151      
102      125      126      145      
126      125      102      110      
110      102      126      146      
119      125      102      145      
91      125      93      127      
93      125      91      74      
74      125      91      90      
94      124      125      145      
125      124      94      74      
92      125      91      127      
90      125      119      94      
92      127      108      125      
112      115      129      133      
83      64      129      130      
64      113      129      114      
112      129      113      114      
64      114      129      130      
64      113      114      131      
112      114      113      136      
112      129      114      133      
64      130      85      114      
64      114      85      131      
107      131      100      139      
100      131      114      139      
107      118      131      139      
64      131      88      113      
88      113      131      136      
114      131      113      136      
112      132      116      146      
112      109      132      146      
114      112      133      141      
112      116      133      141      
88      136      131      118      
102      136      118      154      
112      136      109      146      
118      137      105      144      
118      107      137      139      
126      138      135      124      
135      138      126      128      
128      135      138      147      
128      126      135      154      
124      135      126      145      
136      139      131      118      
131      139      136      114      
114      139      136      141      
136      139      140      149      
140      139      136      118      
118      140      139      137      
118      136      140      154      
140      137      118      144      
140      139      137      155      
116      141      112      146      
114      112      141      136      
114      141      133      142      
141      142      114      139      
133      142      141      148      
141      142      139      149      
105      144      137      153      
118      144      105      96      
140      137      144      153      
140      144      118      154      
105      96      144      106      
105      118      96      151      
119      118      144      145      
119      144      96      150      
96      144      106      150      
105      106      144      153      
125      145      119      94      
135      145      124      94      
94      135      145      144      
126      145      135      154      
124      145      126      125      
144      145      94      119      
119      94      144      150      
135      144      94      134      
135      145      144      154      
102      118      145      154      
144      145      118      154      
102      145      126      154      
136      146      141      154      
141      146      136      112      
116      146      132      128      
116      141      146      128      
132      146      109      110      
109      146      136      102      
128      146      132      110      
141      146      128      154      
126      146      102      154      
110      102      146      109      
110      146      126      128      
126      128      146      154      
102      146      136      154      
135      147      128      154      
141      148      142      149      
139      149      136      141      
140      149      139      155      
143      149      142      148      
142      149      143      139      
139      149      143      155      
72      21      90      150      
90      94      119      150      
134      144      106      153      
106      144      134      94      
94      106      144      150      
134      135      144      140      
96      117      150      106      
21      150      77      94      
77      150      117      106      
77      150      106      94      
105      151      96      78      
55      151      105      152      
104      151      55      152      
78      151      104      152      
105      151      78      152      
140      137      153      155      
140      153      144      134      
147      154      135      140      
140      154      135      144      
140      155      153      134      
2      3       4      2      
1      2       4      1      
4      6       7      4      
5      4       7      5      
8      10       7      8      
10      9       7      10      
12      13       10      12      
11      12       10      11      
17      16       14      17      
16      19       18      16      