title = " tecplot file for process Mesh " 
variables = "x",  "y", "z", "cell_type" 
zone N = 141 E = 669 DATAPACKING = BLOCK,  VARLOCATION = ([4]=CELLCENTERED), ZONETYPE=FETETRAHEDRON 
4.291666e-01     
4.284215e-01     4.000000e-01     3.405134e-01     3.360099e-01     3.000000e-01     
5.000000e-01     4.158415e-01     5.000000e-01     5.000000e-01     2.393170e-01     
2.315953e-01     2.000000e-01     5.000000e-01     5.000000e-01     4.156594e-01     
4.124834e-01     5.000000e-01     5.000000e-01     5.000000e-01     3.999159e-01     
5.000000e-01     5.000000e-01     4.159608e-01     5.000000e-01     5.000000e-01     
1.377046e-01     1.321828e-01     5.000000e-01     5.000000e-01     4.189437e-01     
5.000000e-01     4.099428e-01     5.000000e-01     5.000000e-01     5.000000e-01     
4.045636e-01     5.000000e-01     5.000000e-01     5.000000e-01     4.108373e-01     
4.175237e-01     4.172429e-01     5.000000e-01     5.000000e-01     4.144159e-01     
4.008310e-01     5.000000e-01     7.535529e-02     5.410661e-02     1.616572e-01     
2.552965e-01     2.161830e-01     2.200120e-01     2.672095e-01     3.263200e-01     
2.404959e-01     1.998937e-01     3.241324e-01     6.042708e-02     7.124845e-02     
1.312488e-01     1.091621e-01     1.120897e-01     1.549696e-01     2.303081e-01     
2.816513e-01     2.849217e-01     3.297242e-01     1.139965e-02     1.741537e-01     
2.362427e-01     2.995110e-01     3.251468e-01     4.346364e-01     4.128872e-01     
4.183512e-01     4.047434e-01     5.000000e-01     4.199403e-01     4.114264e-01     
5.000000e-01     3.122917e-01     1.579027e-01     1.753817e-01     3.441565e-01     
1.196113e-01     3.033129e-01     1.236821e-01     2.294465e-01     3.478584e-01     
2.088979e-01     -7.691147e-04     1.766192e-02     3.854274e-01     3.584103e-01     
3.483688e-01     3.537607e-01     4.351436e-02     2.896198e-01     3.027383e-01     
2.753953e-01     2.094841e-01     3.102990e-01     3.634810e-01     2.747904e-01     
1.586154e-01     4.733284e-02     1.627360e-01     1.294970e-01     1.596909e-01     
3.198512e-01     3.244468e-01     2.776291e-01     2.262415e-01     1.694549e-01     
1.569956e-01     2.272211e-01     2.034474e-01     2.046196e-01     5.670359e-02     
1.989850e-01     2.772326e-01     2.942512e-01     3.278424e-01     2.873769e-01     
3.014563e-01     3.356618e-02     1.281992e-01     6.426166e-02     1.626396e-01     
1.222356e-01     7.949834e-02     2.202300e-01     1.353615e-01     1.152956e-01     
4.433114e-01     2.809662e-01     2.323347e-01     1.290798e-01     3.014280e-01     

5.000000e-01     
4.295968e-01     5.000000e-01     4.165746e-01     5.000000e-01     5.000000e-01     
5.000000e-01     5.000000e-01     4.002185e-01     5.000000e-01     4.133445e-01     
5.000000e-01     5.000000e-01     1.385241e-01     2.000000e-01     1.332982e-01     
2.327661e-01     2.398472e-01     3.000000e-01     3.408169e-01     3.370237e-01     
4.000000e-01     4.162748e-01     5.000000e-01     5.000000e-01     5.000000e-01     
4.153532e-01     5.000000e-01     4.285649e-01     5.000000e-01     3.898668e-01     
3.302813e-01     3.563551e-01     4.128642e-01     3.259199e-01     2.310521e-01     
2.822865e-01     2.855261e-01     1.552525e-01     1.133817e-01     1.095501e-01     
2.887301e-01     1.849237e-01     1.763997e-01     2.371940e-01     2.078329e-01     
1.151951e-01     5.580392e-02     4.055642e-01     3.369475e-01     5.000000e-01     
5.000000e-01     4.081786e-01     5.000000e-01     4.011284e-01     5.000000e-01     
5.000000e-01     4.018832e-01     5.000000e-01     1.440632e-01     3.541531e-02     
5.237629e-02     1.782696e-01     2.381181e-01     1.526275e-01     2.245509e-01     
2.701496e-01     3.282316e-01     2.576664e-01     1.096215e-01     1.032071e-01     
1.046175e-01     1.057775e-01     1.645071e-01     4.316022e-01     5.000000e-01     
4.175448e-01     1.429776e-01     1.309113e-01     1.920898e-01     3.180684e-01     
3.387404e-01     3.957599e-01     4.179037e-01     3.244476e-01     4.246380e-01     
3.942137e-01     4.068890e-01     2.959851e-01     3.467533e-01     2.375299e-01     
1.984652e-01     2.319927e-01     2.044256e-01     1.033214e-01     3.655507e-01     
3.216224e-01     2.280819e-01     2.859603e-01     1.197060e-01     1.367728e-01     
3.628053e-01     2.932253e-01     2.938676e-01     2.737711e-01     2.699378e-01     
1.508936e-01     3.076187e-01     3.275821e-01     3.112636e-01     3.482882e-01     
2.125020e-01     3.239175e-01     3.352205e-01     2.874042e-01     1.916033e-01     
2.345615e-01     5.876071e-02     9.500666e-02     1.458495e-01     1.960636e-01     
2.461435e-01     2.023232e-01     1.472880e-01     1.796207e-01     7.962167e-02     
7.716075e-02     1.805921e-01     1.128847e-01     2.169469e-01     2.253253e-01     
1.895138e-01     1.227642e-01     1.622257e-01     2.612971e-01     1.478539e-01     
2.766187e-01     1.977264e-01     1.298456e-01     2.690992e-01     1.379059e-01     

4.279380e-01     
5.000000e-01     5.000000e-01     5.000000e-01     3.986949e-01     5.000000e-01     
3.000000e-01     3.395489e-01     3.372980e-01     4.000000e-01     5.000000e-01     
4.114011e-01     5.000000e-01     4.164962e-01     5.000000e-01     5.000000e-01     
5.000000e-01     4.139005e-01     5.000000e-01     4.168381e-01     5.000000e-01     
5.000000e-01     1.338316e-01     1.366332e-01     1.000000e-01     2.000000e-01     
5.000000e-01     4.155384e-01     4.297174e-01     5.000000e-01     3.946178e-01     
2.582393e-01     2.188789e-01     2.331329e-01     1.652643e-01     2.254400e-01     
2.708449e-01     3.288553e-01     1.530427e-01     2.403316e-01     1.794774e-01     
3.865313e-01     3.854066e-01     3.258233e-01     1.054914e-01     1.613247e-01     
3.021381e-01     3.402593e-01     3.955337e-01     5.000000e-01     3.233363e-01     
3.268755e-01     3.538710e-01     2.243635e-01     2.778618e-01     2.823463e-01     
1.059542e-01     1.555070e-01     1.724774e-01     5.000000e-01     4.149221e-01     
5.000000e-01     4.123820e-01     5.000000e-01     5.000000e-01     5.000000e-01     
4.043188e-01     5.000000e-01     5.000000e-01     4.051339e-01     4.158851e-01     
5.000000e-01     4.045382e-01     5.000000e-01     2.882578e-01     2.381480e-01     
1.595807e-01     8.376815e-02     5.067157e-02     2.530347e-01     1.320240e-01     
4.944539e-02     3.990102e-01     4.164081e-01     5.000000e-01     2.270349e-01     
2.854899e-01     1.163367e-01     3.957879e-01     4.251274e-01     3.384389e-01     
4.035978e-01     5.000000e-01     4.107849e-01     3.875638e-01     3.114284e-01     
4.301783e-01     4.233321e-01     4.295877e-01     1.368564e-01     9.029134e-03     
1.934246e-01     3.045771e-01     2.718335e-01     1.924274e-01     1.870548e-01     
3.171279e-01     3.100022e-01     2.181834e-01     1.209283e-01     3.420747e-01     
8.662246e-02     1.327462e-01     3.436354e-01     9.904607e-02     1.639470e-01     
3.429802e-01     2.936702e-01     1.956325e-01     6.589751e-02     3.061275e-01     
2.288588e-01     3.591781e-01     3.013929e-01     2.103820e-01     3.345710e-01     
2.405767e-01     1.915037e-01     1.495434e-01     8.611439e-02     7.976097e-02     
2.424339e-01     3.501652e-01     2.527781e-01     1.829845e-01     6.105599e-02     
1.924084e-01     4.394627e-01     3.662662e-01     2.638339e-01     3.700488e-01     


0      
0      0      0      0      0      0      0      0      0      0      
0      0      0      0      0      0      0      0      0      0      
0      0      0      0      0      0      0      0      0      0      
0      0      0      0      0      0      0      0      0      0      
0      0      0      0      0      0      0      0      0      0      
0      0      0      0      0      0      0      0      0      0      
0      0      0      0      0      0      0      0      0      0      
0      0      0      0      0      0      0      0      0      0      
0      0      0      0      0      0      0      0      0      0      
0      0      0      0      0      0      0      0      0      0      
0      0      0      0      0      0      0      0      0      0      
0      0      0      0      0      0      0      0      0      0      
0      0      0      0      0      0      0      0      0      0      
0      0      0      0      0      0      0      0      0      0      
0      0      0      0      0      0      0      0      0      0      
0      0      0      0      0      0      0      0      0      0      
0      0      0      0      0      0      0      0      0      0      
0      0      0      0      0      0      0      0      0      0      
0      0      0      0      0      0      0      0      0      0      
0      0      0      0      0      0      0      0      0      0      
0      0      0      0      0      0      0      0      0      0      
0      0      0      0      0      0      0      0      0      0      
0      0      0      0      0      0      0      0      0      0      
0      0      0      0      0      0      0      0      0      0      
0      0      0      0      0      0      0      0      0      0      
0      0      0      0      0      0      0      0      0      0      
0      0      0      0      0      0      0      0      0      0      
0      0      0      0      0      0      0      0      0      0      
0      0      0      0      0      0      0      0      0      0      
0      0      0      0      0      0      0      0      0      0      
0      0      0      0      0      0      0      0      0      0      
0      0      0      0      0      0      0      0      0      0      
0      0      0      0      0      0      0      0      0      0      
0      0      0      0      0      0      0      0      0      0      
0      0      0      0      0      0      0      0      0      0      
0      0      0      0      0      0      0      0      0      0      
0      0      0      0      0      0      0      0      0      0      
0      0      0      0      0      0      0      0      0      0      
0      0      0      0      0      0      0      0      0      0      
0      0      0      0      0      0      0      0      0      0      
0      0      0      0      0      0      0      0      0      0      
0      0      0      0      0      0      0      0      0      0      
0      0      0      0      0      0      0      0      0      0      
0      0      0      0      0      0      0      0      0      0      
0      0      0      0      0      0      0      0      0      0      
0      0      0      0      0      0      0      0      0      0      
0      0      0      0      0      0      1      1      1      1      
1      1      1      1      1      1      1      1      1      1      
1      1      1      1      1      1      1      1      1      1      
1      1      1      1      1      1      1      1      1      1      
1      1      1      1      1      1      1      1      1      1      
1      1      1      1      1      1      1      1      1      1      
1      1      1      1      1      1      1      1      1      1      
1      1      1      1      1      1      1      1      1      1      
1      1      1      1      1      1      1      1      1      1      
1      1      1      1      1      1      1      1      1      1      
1      1      1      1      1      1      1      1      1      1      
1      1      1      1      1      1      1      1      1      1      
1      1      1      1      1      1      1      1      1      1      
1      1      1      1      1      1      1      1      1      1      
1      1      1      1      1      1      1      1      1      1      
1      1      1      1      1      1      1      1      1      1      
1      1      1      1      1      1      1      1      1      1      
1      1      1      1      1      1      1      1      1      1      
1      1      1      1      1      1      1      1      1      1      
1      1      1      1      1      1      1      1      1      1      
1      1      1      1      1      1      1      1      

1      2      3      30      
3      2      1      4      
1      4      2      31      
1      3      4      5      
4      1      5      31      
4      5      3      6      
4      5      6      83      
7      8      9      75      
9      8      7      10      
10      9      8      31      
11      6      12      83      
12      6      11      13      
11      12      13      84      
17      18      19      42      
19      18      17      15      
17      15      18      43      
20      21      19      42      
19      21      20      22      
20      22      21      31      
26      23      24      77      
24      23      26      25      
2      29      30      1      
30      29      2      22      
2      22      29      31      
29      30      1      10      
2      29      1      31      
29      10      1      31      
21      31      4      97      
4      31      21      2      
2      31      21      22      
5      31      1      8      
4      31      5      83      
9      31      20      42      
20      31      9      29      
29      20      31      22      
29      31      9      10      
5      31      8      96      
1      8      31      10      
8      31      9      75      
20      31      21      42      
32      33      34      75      
34      33      32      35      
35      34      33      77      
35      33      32      137      
36      37      38      80      
38      37      36      32      
32      38      37      96      
32      37      36      137      
9      42      38      96      
38      42      9      20      
20      38      42      18      
31      42      9      96      
38      42      18      43      
20      18      42      19      
21      42      31      97      
19      42      21      17      
17      42      21      97      
17      18      42      43      
17      43      42      98      
44      43      14      47      
14      43      44      18      
18      14      43      15      
18      43      44      38      
38      43      44      80      
38      42      43      37      
42      43      37      91      
38      37      43      80      
38      42      37      96      
17      15      43      16      
14      43      15      16      
16      43      17      98      
14      43      16      95      
45      46      39      78      
39      46      45      36      
36      39      46      80      
36      46      45      137      
44      48      47      14      
47      48      44      40      
44      47      40      80      
14      48      47      95      
14      47      43      95      
44      43      47      80      
52      53      12      83      
12      53      52      51      
51      12      53      84      
51      53      52      55      
54      55      52      56      
52      55      54      51      
51      55      54      87      
52      55      53      83      
51      53      55      87      
54      55      56      86      
52      56      55      83      
59      57      58      88      
58      57      59      54      
59      58      54      102      
60      63      64      94      
64      63      60      65      
65      64      63      92      
65      63      60      71      
66      67      68      90      
68      67      66      69      
69      68      67      97      
69      67      66      138      
63      70      61      133      
61      70      63      60      
60      63      61      71      
60      70      63      94      
71      61      60      62      
60      71      62      65      
61      71      63      133      
62      65      71      72      
63      71      65      92      
72      65      71      92      
56      75      76      86      
76      75      56      8      
8      76      75      7      
8      75      56      96      
32      75      9      96      
9      75      32      34      
34      9      75      7      
34      75      33      77      
32      33      75      96      
31      75      8      96      
9      75      31      96      
76      75      7      34      
59      77      24      88      
24      77      59      76      
76      24      77      26      
76      77      59      86      
75      77      76      86      
76      77      75      34      
34      76      77      26      
33      77      75      86      
26      34      76      7      
26      77      34      23      
23      77      34      35      
23      77      35      81      
35      77      33      81      
78      39      45      79      
39      78      46      41      
41      78      46      125      
39      41      46      80      
40      80      47      41      
41      40      80      39      
41      80      47      125      
40      80      39      36      
46      80      41      125      
40      80      36      44      
44      80      36      38      
36      80      46      137      
43      47      80      124      
36      37      80      137      
45      81      35      137      
35      81      45      82      
82      35      81      23      
33      81      77      113      
35      81      33      137      
68      83      11      90      
11      83      68      4      
4      11      83      6      
4      83      68      97      
11      83      53      90      
53      83      11      12      
12      11      53      84      
52      83      5      56      
5      83      52      12      
12      5      83      6      
53      83      55      114      
56      83      5      96      
55      83      56      96      
5      83      31      96      
4      31      83      97      
49      84      28      51      
28      84      49      27      
27      28      84      13      
27      84      49      89      
51      49      84      87      
51      84      28      12      
28      12      84      13      
51      84      53      87      
53      84      11      90      
85      84      27      89      
27      84      85      11      
11      27      84      13      
11      84      85      90      
75      86      56      96      
76      56      86      59      
33      77      86      113      
33      86      75      96      
59      86      77      88      
56      86      59      54      
54      86      59      102      
55      86      54      102      
56      86      55      96      
58      87      55      109      
55      87      58      54      
54      58      55      102      
49      84      87      111      
53      87      84      111      
55      87      53      111      
86      88      59      102      
77      88      86      113      
59      88      58      102      
64      89      50      99      
50      89      64      85      
85      50      89      27      
85      89      64      92      
27      89      49      50      
50      89      49      99      
49      89      84      111      
84      89      85      90      
83      90      68      97      
11      68      90      85      
53      90      83      114      
68      90      85      66      
66      90      85      92      
68      90      67      97      
66      67      90      92      
89      90      84      111      
85      90      89      92      
84      90      53      111      
80      91      43      124      
43      91      80      37      
37      91      80      125      
42      43      91      98      
42      91      37      96      
65      92      66      64      
66      92      65      72      
72      66      92      138      
72      92      71      139      
71      92      63      107      
64      92      66      85      
63      92      64      89      
63      89      64      99      
63      92      89      117      
67      90      92      117      
67      92      66      138      
89      92      90      117      
93      94      64      99      
64      94      93      60      
64      94      63      99      
63      94      70      133      
16      95      43      98      
43      95      47      141      
56      8      96      5      
83      96      55      114      
55      96      86      104      
37      96      91      104      
42      91      96      97      
31      42      96      97      
9      96      38      32      
32      96      37      33      
33      96      37      104      
32      33      37      137      
86      96      33      104      
67      97      90      114      
90      97      83      114      
21      97      68      69      
68      97      21      4      
83      97      31      96      
69      21      97      17      
69      97      67      98      
83      97      96      114      
91      96      97      114      
91      97      42      98      
17      97      69      98      
42      97      17      98      
67      69      98      138      
67      98      97      91      
91      67      98      123      
91      97      67      114      
69      17      98      74      
43      91      98      141      
74      98      95      16      
95      98      74      73      
73      95      98      141      
73      98      74      138      
16      74      98      17      
43      98      95      141      
74      98      69      138      
64      99      50      93      
63      89      99      121      
63      99      94      121      
49      99      89      108      
88      102      86      113      
58      102      88      115      
55      102      58      109      
86      102      55      104      
103      104      102      106      
102      104      103      55      
55      103      102      109      
55      104      103      114      
55      96      104      114      
102      104      86      33      
33      102      104      105      
33      86      102      113      
102      104      105      106      
33      105      104      37      
33      102      105      113      
105      104      37      125      
33      105      37      137      
106      104      105      125      
102      106      105      113      
106      103      104      122      
106      102      103      109      
91      104      96      114      
37      104      91      125      
92      107      71      139      
63      71      107      133      
63      107      92      117      
89      108      99      121      
49      108      89      111      
106      102      109      115      
106      109      103      122      
55      103      109      111      
55      109      87      111      
58      109      102      115      
53      111      90      114      
90      111      89      117      
108      111      49      87      
87      108      111      140      
89      111      108      140      
103      109      111      140      
103      111      55      114      
87      111      109      140      
53      55      111      114      
100      112      78      125      
78      112      100      101      
101      112      100      120      
46      112      105      125      
105      112      46      81      
81      105      112      113      
81      46      105      137      
105      113      106      112      
102      106      113      115      
33      113      105      81      
33      81      105      137      
102      113      88      115      
112      113      106      115      
105      112      106      125      
103      114      104      123      
90      114      111      103      
90      103      111      117      
90      114      103      67      
104      114      91      123      
91      114      67      123      
67      103      90      117      
67      114      103      123      
106      115      109      122      
58      109      115      110      
110      109      115      135      
106      112      115      116      
112      115      116      120      
106      116      115      122      
106      112      116      125      
89      63      117      121      
107      117      63      121      
92      117      107      123      
67      103      117      123      
67      117      92      123      
116      112      120      100      
116      120      115      131      
100      116      112      125      
100      120      116      119      
116      119      120      129      
116      100      119      134      
117      121      107      132      
63      107      121      133      
89      121      117      140      
89      108      121      140      
103      122      109      140      
115      122      116      135      
106      116      122      134      
109      122      115      135      
104      122      103      134      
106      122      104      134      
107      92      123      139      
107      123      117      134      
124      123      91      141      
91      123      124      104      
104      124      91      125      
104      123      124      134      
104      103      123      134      
98      123      67      138      
91      123      98      141      
106      104      125      134      
91      125      124      80      
104      124      125      134      
80      125      124      47      
80      37      125      105      
105      125      80      46      
37      105      80      137      
112      125      46      78      
78      100      125      41      
41      100      125      127      
47      41      125      127      
47      125      124      127      
80      105      46      137      
124      47      127      126      
124      127      125      134      
100      125      127      134      
124      126      127      118      
124      47      126      141      
124      118      127      134      
124      126      118      139      
116      130      129      136      
129      130      116      128      
116      128      130      135      
116      129      128      132      
116      129      120      136      
119      129      116      132      
120      131      116      136      
115      116      131      135      
121      132      117      140      
107      117      132      134      
119      132      116      134      
128      116      132      135      
63      133      121      94      
116      134      132      122      
119      132      134      107      
122      132      116      135      
122      134      132      117      
106      116      134      125      
116      134      125      100      
124      134      123      139      
119      134      100      127      
119      134      127      118      
118      119      134      107      
118      134      124      139      
123      134      107      139      
117      134      123      103      
103      134      122      117      
117      122      103      140      
107      134      118      139      
122      132      135      140      
116      135      130      131      
131      135      110      115      
110      135      131      130      
116      131      130      136      
109      122      135      140      
128      135      132      140      
89      117      111      140      
111      117      103      140      
47      124      43      141      
43      124      91      141      
92      67      123      138      
132      122      117      140      
32      35      137      36      
35      137      36      45      
81      46      137      45      
66      69      138      74      
92      138      123      139      
123      138      98      141      
74      138      66      72      
72      74      138      73      
72      138      92      139      
72      73      138      139      
73      98      138      141      
124      126      139      141      
123      124      139      141      
123      139      138      141      
73      138      139      141      
132      128      140      121      
95      141      126      47      
126      141      95      73      
73      126      141      139      
30      22       29      30      
30      29       10      30      
10      29       9      10      
10      9       7      10      
29      22       20      29      
20      22       19      20      
7      9       34      7      
7      34       26      7      
20      19       18      20      
18      19       15      18      
18      15       14      18      
26      34       23      26      
26      23       25      26      
29      20       9      29      
20      18       38      20      
20      38       9      20      
34      9       32      34      
32      9       38      32      
23      34       35      23      
35      34       32      35      
82      23       35      82      
18      14       44      18      
18      44       38      18      
14      48       44      14      
32      38       36      32      
36      38       44      36      
35      32       36      35      
44      48       40      44      
44      40       36      44      
82      35       45      82      
45      35       36      45      
36      40       39      36      
36      39       45      36      
45      39       79      45      
22      30       2      22      
2      30       3      2      
22      2       21      22      
22      21       19      22      
2      3       4      2      
4      3       6      4      
19      21       17      19      
19      17       15      19      
4      6       11      4      
11      6       13      11      
11      13       27      11      
15      17       16      15      
2      4       21      2      
4      11       68      4      
4      68       21      4      
17      21       69      17      
69      21       68      69      
16      17       74      16      
74      17       69      74      
11      27       85      11      