Title = " tecplot out file" 
variables = "x", "y", "z", "velX", "velY", "velZ","density","pressure","viscosity","temperature", "collisionFrequency",
Zone T = "nmesh0" N = 121 E = 100 DATAPACKING = BLOCK, VARLOCATION = ([4-11]=CELLCENTERED),  ZONETYPE=FEQUADRILATERAL 
0.0    
0.0    
0.1    
0.1    
0.0    

0.1    
0.0    
0.1    
0.0    
0.1    

0.0    
0.1    
0.0    
0.1    
0.0    

0.1    
0.0    
0.1    
0.0    
0.1    

0.0    
0.1    
0.2    
0.2    
0.2    

0.2    
0.2    
0.2    
0.2    
0.2    

0.2    
0.2    
0.2    
0.3    
0.3    

0.3    
0.3    
0.3    
0.3    
0.3    

0.3    
0.3    
0.3    
0.3    
0.4    

0.4    
0.4    
0.4    
0.4    
0.4    

0.4    
0.4    
0.4    
0.4    
0.4    

0.5    
0.5    
0.5    
0.5    
0.5    

0.5    
0.5    
0.5    
0.5    
0.5    

0.5    
0.6    
0.6    
0.6    
0.6    

0.6    
0.6    
0.6    
0.6    
0.6    

0.6    
0.6    
0.7    
0.7    
0.7    

0.7    
0.7    
0.7    
0.7    
0.7    

0.7    
0.7    
0.7    
0.8    
0.8    

0.8    
0.8    
0.8    
0.8    
0.8    

0.8    
0.8    
0.8    
0.8    
0.9    

0.9    
0.9    
0.9    
0.9    
0.9    

0.9    
0.9    
0.9    
0.9    
0.9    

1.0    
1.0    
1.0    
1.0    
1.0    

1.0    
1.0    
1.0    
1.0    
1.0    

1.0    
1.0    
0.9    
1.0    
0.9    
0.8    

0.8    
0.7    
0.7    
0.6    
0.6    

0.5    
0.5    
0.4    
0.4    
0.3    

0.3    
0.2    
0.2    
0.1    
0.1    

0.0    
0.0    
1.0    
0.9    
0.8    

0.7    
0.6    
0.5    
0.4    
0.3    

0.2    
0.1    
0.0    
1.0    
0.9    

0.8    
0.7    
0.6    
0.5    
0.4    

0.3    
0.2    
0.1    
0.0    
1.0    

0.9    
0.8    
0.7    
0.6    
0.5    

0.4    
0.3    
0.2    
0.1    
0.0    

1.0    
0.9    
0.8    
0.7    
0.6    

0.5    
0.4    
0.3    
0.2    
0.1    

0.0    
1.0    
0.9    
0.8    
0.7    

0.6    
0.5    
0.4    
0.3    
0.2    

0.1    
0.0    
1.0    
0.9    
0.8    

0.7    
0.6    
0.5    
0.4    
0.3    

0.2    
0.1    
0.0    
1.0    
0.9    

0.8    
0.7    
0.6    
0.5    
0.4    

0.3    
0.2    
0.1    
0.0    
1.0    

0.9    
0.8    
0.7    
0.6    
0.5    

0.4    
0.3    
0.2    
0.1    
0.0    

0.9    
1.0    
0.8    
0.7    
0.6    

0.5    
0.4    
0.3    
0.2    
0.1    

0.0    
0.0    0.0    0.0    0.0    0.0    
0.0    0.0    0.0    0.0    0.0    
0.0    0.0    0.0    0.0    0.0    
0.0    0.0    0.0    0.0    0.0    
0.0    0.0    0.0    0.0    0.0    
0.0    0.0    0.0    0.0    0.0    
0.0    0.0    0.0    0.0    0.0    
0.0    0.0    0.0    0.0    0.0    
0.0    0.0    0.0    0.0    0.0    
0.0    0.0    0.0    0.0    0.0    
0.0    0.0    0.0    0.0    0.0    
0.0    0.0    0.0    0.0    0.0    
0.0    0.0    0.0    0.0    0.0    
0.0    0.0    0.0    0.0    0.0    
0.0    0.0    0.0    0.0    0.0    
0.0    0.0    0.0    0.0    0.0    
0.0    0.0    0.0    0.0    0.0    
0.0    0.0    0.0    0.0    0.0    
0.0    0.0    0.0    0.0    0.0    
0.0    0.0    0.0    0.0    0.0    
0.0    0.0    0.0    0.0    0.0    
0.0    0.0    0.0    0.0    0.0    
0.0    0.0    0.0    0.0    0.0    
0.0    0.0    0.0    0.0    0.0    
0.0    
-5.93189468365e-08    -5.97209128732e-08    -5.97242292005e-08    -5.97242538367e-08    -5.97242538831e-08    
-5.97242540821e-08    -5.97242536374e-08    -5.97242291074e-08    -5.97209125482e-08    -5.93189461863e-08    
-6.76171385308e-10    -6.81042961335e-10    -6.8108190299e-10    -6.81082149296e-10    -6.81082294105e-10    
-6.81082957869e-10    -6.81082817938e-10    -6.81084904528e-10    -6.81038649658e-10    -6.76172470027e-10    
-6.03749856032e-12    -6.08342500435e-12    -6.08189750986e-12    -6.08252365957e-12    -6.08276407986e-12    
-6.08274496402e-12    -6.08243942123e-12    -6.08455403054e-12    -6.07871276818e-12    -6.03494983422e-12    
-4.67924068652e-14    -4.90656285288e-14    -4.70887703699e-14    -4.77774135453e-14    -4.64436307505e-14    
-4.83629545576e-14    -4.71449649957e-14    -5.03509757994e-14    -4.50771936449e-14    -4.63696846592e-14    
-8.37625073393e-16    -7.55513672495e-16    -6.04368498426e-16    -1.72008204093e-16    -3.63747736671e-16    
-2.63899116685e-16    -3.93972666847e-16    -1.43362252172e-15    1.37752365391e-15    1.73488119135e-17    
-2.42322015557e-16    -1.35412163281e-16    4.33156820534e-16    1.01494165741e-15    8.69978195972e-16    
4.40002202842e-16    4.67438646856e-16    -7.86280147305e-16    2.01069330883e-15    6.9414544864e-16    
4.63076744795e-14    4.62136324068e-14    4.64066371492e-14    4.74627315092e-14    4.7099789207e-14    
4.72148172118e-14    4.69418101912e-14    4.58493484607e-14    4.86278803493e-14    4.69883300003e-14    
6.03492223451e-12    6.0824132788e-12    6.084253252e-12    6.08501477625e-12    6.08508163698e-12    
6.08456644886e-12    6.08400374151e-12    6.0819684418e-12    6.08573342149e-12    6.03878807852e-12    
6.76172597556e-10    6.81039777165e-10    6.81082388715e-10    6.81082487243e-10    6.81082285988e-10    
6.81082252226e-10    6.81082285976e-10    6.8108031826e-10    6.81043356658e-10    6.76170478673e-10    
5.93189464996e-08    5.9720912955e-08    5.97242291155e-08    5.97242540638e-08    5.97242543495e-08    
5.97242542013e-08    5.97242540844e-08    5.97242277104e-08    5.97209142181e-08    5.93189470133e-08    

5.93189469492e-08    6.76171302203e-10    6.03546173742e-12    4.67055742417e-14    5.14817429666e-16    
-1.91011129e-16    -4.64057733848e-14    -6.03509779412e-12    -6.76172684584e-10    -5.93189466642e-08    
5.9720913184e-08    6.81042858738e-10    6.08282583057e-12    4.93503797669e-14    2.69597215412e-15    
5.54389688888e-16    -4.60667504674e-14    -6.08261562604e-12    -6.81039816114e-10    -5.97209123934e-08    
5.97242283314e-08    6.8108220896e-10    6.08047337782e-12    4.65400208853e-14    -1.48905317782e-16    
-7.54555824394e-16    -4.73788576195e-14    -6.08448899954e-12    -6.81081885425e-10    -5.97242288702e-08    
5.97242539234e-08    6.81082338107e-10    6.08246927625e-12    4.79424697549e-14    1.88700950722e-15    
-7.92997610788e-16    -4.68781659023e-14    -6.08449294569e-12    -6.81082213522e-10    -5.97242537079e-08    
5.97242541919e-08    6.81082925106e-10    6.08115417417e-12    4.70375550062e-14    3.55811172699e-16    
-2.17337052537e-16    -4.69006124988e-14    -6.08361074615e-12    -6.81082046186e-10    -5.97242538828e-08    
5.97242541811e-08    6.81082940379e-10    6.08246328936e-12    4.85569406511e-14    1.92934390396e-15    
-1.90816113325e-16    -4.69168945412e-14    -6.08366011274e-12    -6.81082042371e-10    -5.9724254029e-08    
5.97242538822e-08    6.81082970533e-10    6.08111217608e-12    4.70975885804e-14    4.39790126706e-16    
-2.35086732281e-16    -4.68830940321e-14    -6.08356065845e-12    -6.81082118526e-10    -5.97242537371e-08    
5.97242290602e-08    6.8108467444e-10    6.08446269897e-12    5.06036177494e-14    3.91111767816e-15    
1.52312785063e-15    -4.5226515269e-14    -6.08198353878e-12    -6.81080176621e-10    -5.97242272195e-08    
5.97209125917e-08    6.81038902576e-10    6.07886063742e-12    4.53383063129e-14    -1.24510417164e-15    
-1.90827298708e-15    -4.86421097159e-14    -6.08486838006e-12    -6.81042785803e-10    -5.97209140121e-08    
5.93189468322e-08    6.76172970227e-10    6.03544555035e-12    4.66304384008e-14    4.26774199555e-16    
-3.0148106374e-16    -4.6530466188e-14    -6.03797556576e-12    -6.76169969901e-10    -5.93189468138e-08    

3.97842950923e-17    2.49998120106e-17    4.372693639e-17    4.43038758006e-17    4.60299619999e-17    
4.9070523793e-17    3.52035902421e-17    4.24008718973e-17    3.50436236839e-17    3.85181418311e-17    
5.85451620311e-17    3.24822580886e-17    3.3661618586e-17    2.8358762432e-17    3.41917240733e-17    
3.58092746577e-17    4.45390178294e-17    4.31324767049e-17    5.24491557551e-17    4.10274613023e-17    
5.53177177816e-17    1.94121345959e-17    5.20524063472e-17    4.17110355345e-17    5.587885126e-17    
3.9147988455e-17    4.29144584418e-17    2.79048862483e-17    4.57746331121e-17    3.5967767384e-17    
3.1653173247e-17    2.39639270004e-17    2.89090916011e-17    2.35738692103e-17    3.89583514157e-17    
4.56353412272e-17    4.2522117679e-17    2.85643078511e-17    2.53058145321e-17    4.02280963556e-17    
2.75564972396e-17    4.85839438276e-17    4.1820305963e-17    2.68223667079e-17    4.87773765122e-17    
2.6400281053e-17    3.75181301235e-17    2.44555125916e-17    3.04142340974e-17    2.4813199827e-17    
4.68198701783e-17    4.22831254259e-17    3.85995248452e-17    5.00300602888e-17    2.5299643844e-17    
4.40557222051e-17    3.8974882082e-17    3.54120933528e-17    2.53011737422e-17    2.83241107312e-17    
1.41345301708e-17    4.14499310117e-17    2.73592448158e-17    4.74542222034e-17    3.29820560157e-17    
2.8855319678e-17    3.05639508717e-17    3.05041851345e-17    3.02032344884e-17    4.03670659226e-17    
4.48778188773e-17    4.69691076286e-17    1.99739169104e-17    3.10672767309e-17    1.55063395585e-17    
3.80604917486e-17    4.95403363644e-17    4.13577186259e-17    1.58647254111e-17    4.68176995736e-17    
3.13719240168e-17    4.4335385318e-17    2.69525050705e-17    4.49339476536e-17    4.46680970658e-17    
3.2073633734e-17    2.96661172788e-17    4.03152984123e-17    3.98371233118e-17    2.75789504754e-17    
3.84507368037e-17    8.99595078338e-18    2.58606001321e-17    1.6668420931e-17    3.53243873086e-17    
9.00830425067e-18    2.97331786743e-17    2.42174298285e-17    4.4041200488e-17    3.57036024304e-17    

1.00000136953    1.00000140392    1.00000140438    1.00000140438    1.00000140438    
1.00000140438    1.00000140438    1.00000140438    1.00000140392    1.00000136953    
1.00000140392    1.00000143865    1.0000014391    1.00000143911    1.00000143911    
1.00000143911    1.00000143911    1.0000014391    1.00000143865    1.00000140392    
1.00000140438    1.0000014391    1.00000143956    1.00000143956    1.00000143956    
1.00000143956    1.00000143956    1.00000143956    1.0000014391    1.00000140438    
1.00000140438    1.00000143911    1.00000143956    1.00000143957    1.00000143957    
1.00000143957    1.00000143957    1.00000143956    1.00000143911    1.00000140438    
1.00000140438    1.00000143911    1.00000143956    1.00000143957    1.00000143957    
1.00000143957    1.00000143957    1.00000143956    1.00000143911    1.00000140438    
1.00000140438    1.00000143911    1.00000143956    1.00000143957    1.00000143957    
1.00000143957    1.00000143957    1.00000143956    1.00000143911    1.00000140438    
1.00000140438    1.00000143911    1.00000143956    1.00000143957    1.00000143957    
1.00000143957    1.00000143957    1.00000143956    1.00000143911    1.00000140438    
1.00000140438    1.0000014391    1.00000143956    1.00000143956    1.00000143956    
1.00000143956    1.00000143956    1.00000143956    1.0000014391    1.00000140438    
1.00000140392    1.00000143865    1.0000014391    1.00000143911    1.00000143911    
1.00000143911    1.00000143911    1.0000014391    1.00000143865    1.00000140392    
1.00000136953    1.00000140392    1.00000140438    1.00000140438    1.00000140438    
1.00000140438    1.00000140438    1.00000140438    1.00000140392    1.00000136953    

1.00002549618    1.00002562571    1.00002562696    1.00002562698    1.00002562698    
1.00002562698    1.00002562698    1.00002562696    1.00002562571    1.00002549618    
1.00002562571    1.00002575627    1.00002575754    1.00002575755    1.00002575755    
1.00002575755    1.00002575755    1.00002575754    1.00002575627    1.00002562571    
1.00002562696    1.00002575754    1.0000257588    1.00002575881    1.00002575881    
1.00002575881    1.00002575881    1.0000257588    1.00002575754    1.00002562696    
1.00002562698    1.00002575755    1.00002575881    1.00002575883    1.00002575883    
1.00002575883    1.00002575883    1.00002575881    1.00002575755    1.00002562698    
1.00002562698    1.00002575755    1.00002575881    1.00002575883    1.00002575883    
1.00002575883    1.00002575883    1.00002575881    1.00002575755    1.00002562698    
1.00002562698    1.00002575755    1.00002575881    1.00002575883    1.00002575883    
1.00002575883    1.00002575883    1.00002575881    1.00002575755    1.00002562698    
1.00002562698    1.00002575755    1.00002575881    1.00002575883    1.00002575883    
1.00002575883    1.00002575883    1.00002575881    1.00002575755    1.00002562698    
1.00002562696    1.00002575754    1.0000257588    1.00002575881    1.00002575881    
1.00002575881    1.00002575881    1.0000257588    1.00002575754    1.00002562696    
1.00002562571    1.00002575627    1.00002575754    1.00002575755    1.00002575755    
1.00002575755    1.00002575755    1.00002575754    1.00002575627    1.00002562571    
1.00002549618    1.00002562571    1.00002562696    1.00002562698    1.00002562698    
1.00002562698    1.00002562698    1.00002562696    1.00002562571    1.00002549618    

2.25032046203e-07    2.25032063543e-07    2.2503206369e-07    2.25032063691e-07    2.25032063691e-07    
2.25032063691e-07    2.25032063691e-07    2.2503206369e-07    2.25032063543e-07    2.25032046203e-07    
2.25032063543e-07    2.25032081011e-07    2.25032081159e-07    2.2503208116e-07    2.2503208116e-07    
2.2503208116e-07    2.2503208116e-07    2.25032081159e-07    2.25032081011e-07    2.25032063543e-07    
2.2503206369e-07    2.25032081159e-07    2.25032081307e-07    2.25032081308e-07    2.25032081308e-07    
2.25032081308e-07    2.25032081308e-07    2.25032081307e-07    2.25032081159e-07    2.2503206369e-07    
2.25032063691e-07    2.2503208116e-07    2.25032081308e-07    2.25032081309e-07    2.25032081309e-07    
2.25032081309e-07    2.25032081309e-07    2.25032081308e-07    2.2503208116e-07    2.25032063691e-07    
2.25032063691e-07    2.2503208116e-07    2.25032081308e-07    2.25032081309e-07    2.2503208131e-07    
2.2503208131e-07    2.25032081309e-07    2.25032081308e-07    2.2503208116e-07    2.25032063691e-07    
2.25032063691e-07    2.2503208116e-07    2.25032081308e-07    2.25032081309e-07    2.2503208131e-07    
2.2503208131e-07    2.25032081309e-07    2.25032081308e-07    2.2503208116e-07    2.25032063691e-07    
2.25032063691e-07    2.2503208116e-07    2.25032081308e-07    2.25032081309e-07    2.25032081309e-07    
2.25032081309e-07    2.25032081309e-07    2.25032081308e-07    2.2503208116e-07    2.25032063691e-07    
2.2503206369e-07    2.25032081159e-07    2.25032081307e-07    2.25032081308e-07    2.25032081308e-07    
2.25032081308e-07    2.25032081308e-07    2.25032081307e-07    2.25032081159e-07    2.2503206369e-07    
2.25032063543e-07    2.25032081011e-07    2.25032081159e-07    2.2503208116e-07    2.2503208116e-07    
2.2503208116e-07    2.2503208116e-07    2.25032081159e-07    2.25032081011e-07    2.25032063543e-07    
2.25032046203e-07    2.25032063543e-07    2.2503206369e-07    2.25032063691e-07    2.25032063691e-07    
2.25032063691e-07    2.25032063691e-07    2.2503206369e-07    2.25032063543e-07    2.25032046203e-07    

1.00002412662    1.00002422175    1.00002422256    1.00002422256    1.00002422256    
1.00002422256    1.00002422256    1.00002422256    1.00002422175    1.00002412662    
1.00002422175    1.00002431759    1.0000243184    1.0000243184    1.0000243184    
1.0000243184    1.0000243184    1.0000243184    1.00002431759    1.00002422175    
1.00002422256    1.0000243184    1.00002431921    1.00002431922    1.00002431922    
1.00002431922    1.00002431922    1.00002431921    1.0000243184    1.00002422256    
1.00002422256    1.0000243184    1.00002431922    1.00002431922    1.00002431922    
1.00002431922    1.00002431922    1.00002431922    1.0000243184    1.00002422256    
1.00002422256    1.0000243184    1.00002431922    1.00002431922    1.00002431922    
1.00002431922    1.00002431922    1.00002431922    1.0000243184    1.00002422256    
1.00002422256    1.0000243184    1.00002431922    1.00002431922    1.00002431922    
1.00002431922    1.00002431922    1.00002431922    1.0000243184    1.00002422256    
1.00002422256    1.0000243184    1.00002431922    1.00002431922    1.00002431922    
1.00002431922    1.00002431922    1.00002431922    1.0000243184    1.00002422256    
1.00002422256    1.0000243184    1.00002431921    1.00002431922    1.00002431922    
1.00002431922    1.00002431922    1.00002431921    1.0000243184    1.00002422256    
1.00002422175    1.00002431759    1.0000243184    1.0000243184    1.0000243184    
1.0000243184    1.0000243184    1.0000243184    1.00002431759    1.00002422175    
1.00002412662    1.00002422175    1.00002422256    1.00002422256    1.00002422256    
1.00002422256    1.00002422256    1.00002422256    1.00002422175    1.00002412662    

1239.54132533    1239.54139037    1239.54139112    1239.54139113    1239.54139113    
1239.54139113    1239.54139113    1239.54139112    1239.54139037    1239.54132533    
1239.54139037    1239.54145598    1239.54145674    1239.54145675    1239.54145675    
1239.54145675    1239.54145675    1239.54145674    1239.54145598    1239.54139037    
1239.54139112    1239.54145674    1239.5414575    1239.5414575    1239.5414575    
1239.5414575    1239.5414575    1239.5414575    1239.54145674    1239.54139112    
1239.54139113    1239.54145675    1239.5414575    1239.54145751    1239.54145751    
1239.54145751    1239.54145751    1239.5414575    1239.54145675    1239.54139113    
1239.54139113    1239.54145675    1239.5414575    1239.54145751    1239.54145751    
1239.54145751    1239.54145751    1239.5414575    1239.54145675    1239.54139113    
1239.54139113    1239.54145675    1239.5414575    1239.54145751    1239.54145751    
1239.54145751    1239.54145751    1239.5414575    1239.54145675    1239.54139113    
1239.54139113    1239.54145675    1239.5414575    1239.54145751    1239.54145751    
1239.54145751    1239.54145751    1239.5414575    1239.54145675    1239.54139113    
1239.54139112    1239.54145674    1239.5414575    1239.5414575    1239.5414575    
1239.5414575    1239.5414575    1239.5414575    1239.54145674    1239.54139112    
1239.54139037    1239.54145598    1239.54145674    1239.54145675    1239.54145675    
1239.54145675    1239.54145675    1239.54145674    1239.54145598    1239.54139037    
1239.54132533    1239.54139037    1239.54139112    1239.54139113    1239.54139113    
1239.54139113    1239.54139113    1239.54139112    1239.54139037    1239.54132533    

2     4     3     1     4     2     5     6     6     5     7     8     8     7     9     10     10     9     11     12     12     11     13     14     14     13     15     16     16     15     17     18     18     17     19     20     20     19     21     22     3     4     24     23     4     6     25     24     6     8     26     25     8     10     27     26     10     12     28     27     12     14     29     28     14     16     30     29     16     18     31     30     18     20     32     31     20     22     33     32     23     24     35     34     24     25     36     35     25     26     37     36     26     27     38     37     27     28     39     38     28     29     40     39     29     30     41     40     30     31     42     41     31     32     43     42     32     33     44     43     34     35     46     45     35     36     47     46     36     37     48     47     37     38     49     48     38     39     50     49     39     40     51     50     40     41     52     51     41     42     53     52     42     43     54     53     43     44     55     54     45     46     57     56     46     47     58     57     47     48     59     58     48     49     60     59     49     50     61     60     50     51     62     61     51     52     63     62     52     53     64     63     53     54     65     64     54     55     66     65     56     57     68     67     57     58     69     68     58     59     70     69     59     60     71     70     60     61     72     71     61     62     73     72     62     63     74     73     63     64     75     74     64     65     76     75     65     66     77     76     67     68     79     78     68     69     80     79     69     70     81     80     70     71     82     81     71     72     83     82     72     73     84     83     73     74     85     84     74     75     86     85     75     76     87     86     76     77     88     87     78     79     90     89     79     80     91     90     80     81     92     91     81     82     93     92     82     83     94     93     83     84     95     94     84     85     96     95     85     86     97     96     86     87     98     97     87     88     99     98     89     90     101     100     90     91     102     101     91     92     103     102     92     93     104     103     93     94     105     104     94     95     106     105     95     96     107     106     96     97     108     107     97     98     109     108     98     99     110     109     100     101     111     112     101     102     113     111     102     103     114     113     103     104     115     114     104     105     116     115     105     106     117     116     106     107     118     117     107     108     119     118     108     109     120     119     109     110     121     120     

