Title = " tecplot out file" 
variables = "x", "y", "z", "velX", "velY", "velZ","density","pressure","viscosity","temperature", "collisionFrequency",
Zone T = "nmesh0" N = 121 E = 100 DATAPACKING = BLOCK, VARLOCATION = ([4-11]=CELLCENTERED),  ZONETYPE=FEQUADRILATERAL 
0.0    
0.0    
0.1    
0.1    
0.0    

0.1    
0.0    
0.1    
0.0    
0.1    

0.0    
0.1    
0.0    
0.1    
0.0    

0.1    
0.0    
0.1    
0.0    
0.1    

0.0    
0.1    
0.2    
0.2    
0.2    

0.2    
0.2    
0.2    
0.2    
0.2    

0.2    
0.2    
0.2    
0.3    
0.3    

0.3    
0.3    
0.3    
0.3    
0.3    

0.3    
0.3    
0.3    
0.3    
0.4    

0.4    
0.4    
0.4    
0.4    
0.4    

0.4    
0.4    
0.4    
0.4    
0.4    

0.5    
0.5    
0.5    
0.5    
0.5    

0.5    
0.5    
0.5    
0.5    
0.5    

0.5    
0.6    
0.6    
0.6    
0.6    

0.6    
0.6    
0.6    
0.6    
0.6    

0.6    
0.6    
0.7    
0.7    
0.7    

0.7    
0.7    
0.7    
0.7    
0.7    

0.7    
0.7    
0.7    
0.8    
0.8    

0.8    
0.8    
0.8    
0.8    
0.8    

0.8    
0.8    
0.8    
0.8    
0.9    

0.9    
0.9    
0.9    
0.9    
0.9    

0.9    
0.9    
0.9    
0.9    
0.9    

1.0    
1.0    
1.0    
1.0    
1.0    

1.0    
1.0    
1.0    
1.0    
1.0    

1.0    
1.0    
0.9    
1.0    
0.9    
0.8    

0.8    
0.7    
0.7    
0.6    
0.6    

0.5    
0.5    
0.4    
0.4    
0.3    

0.3    
0.2    
0.2    
0.1    
0.1    

0.0    
0.0    
1.0    
0.9    
0.8    

0.7    
0.6    
0.5    
0.4    
0.3    

0.2    
0.1    
0.0    
1.0    
0.9    

0.8    
0.7    
0.6    
0.5    
0.4    

0.3    
0.2    
0.1    
0.0    
1.0    

0.9    
0.8    
0.7    
0.6    
0.5    

0.4    
0.3    
0.2    
0.1    
0.0    

1.0    
0.9    
0.8    
0.7    
0.6    

0.5    
0.4    
0.3    
0.2    
0.1    

0.0    
1.0    
0.9    
0.8    
0.7    

0.6    
0.5    
0.4    
0.3    
0.2    

0.1    
0.0    
1.0    
0.9    
0.8    

0.7    
0.6    
0.5    
0.4    
0.3    

0.2    
0.1    
0.0    
1.0    
0.9    

0.8    
0.7    
0.6    
0.5    
0.4    

0.3    
0.2    
0.1    
0.0    
1.0    

0.9    
0.8    
0.7    
0.6    
0.5    

0.4    
0.3    
0.2    
0.1    
0.0    

0.9    
1.0    
0.8    
0.7    
0.6    

0.5    
0.4    
0.3    
0.2    
0.1    

0.0    
0.0    0.0    0.0    0.0    0.0    
0.0    0.0    0.0    0.0    0.0    
0.0    0.0    0.0    0.0    0.0    
0.0    0.0    0.0    0.0    0.0    
0.0    0.0    0.0    0.0    0.0    
0.0    0.0    0.0    0.0    0.0    
0.0    0.0    0.0    0.0    0.0    
0.0    0.0    0.0    0.0    0.0    
0.0    0.0    0.0    0.0    0.0    
0.0    0.0    0.0    0.0    0.0    
0.0    0.0    0.0    0.0    0.0    
0.0    0.0    0.0    0.0    0.0    
0.0    0.0    0.0    0.0    0.0    
0.0    0.0    0.0    0.0    0.0    
0.0    0.0    0.0    0.0    0.0    
0.0    0.0    0.0    0.0    0.0    
0.0    0.0    0.0    0.0    0.0    
0.0    0.0    0.0    0.0    0.0    
0.0    0.0    0.0    0.0    0.0    
0.0    0.0    0.0    0.0    0.0    
0.0    0.0    0.0    0.0    0.0    
0.0    0.0    0.0    0.0    0.0    
0.0    0.0    0.0    0.0    0.0    
0.0    0.0    0.0    0.0    0.0    
0.0    
-9.87019574245e-09    -9.89851087711e-09    -9.89862709728e-09    -9.89862791989e-09    -9.8986280907e-09    
-9.89862803546e-09    -9.89862809099e-09    -9.89862731209e-09    -9.89851165398e-09    -9.87019521971e-09    
-5.17079543852e-11    -5.18680884384e-11    -5.18684768138e-11    -5.18685016727e-11    -5.18685710078e-11    
-5.18687338179e-11    -5.18686589124e-11    -5.18695310986e-11    -5.18678424027e-11    -5.17085543996e-11    
-2.21547866569e-13    -2.23170196802e-13    -2.22985793047e-13    -2.2268499617e-13    -2.2280845502e-13    
-2.22808460142e-13    -2.22777483455e-13    -2.22868096884e-13    -2.22557288782e-13    -2.22175595732e-13    
-5.82948389923e-16    -1.02214647872e-15    -1.0946933337e-15    -1.0375998439e-15    -6.44545406064e-16    
-1.09839862762e-15    -9.09673764808e-16    -1.1673253893e-15    -5.02347840269e-16    -9.48408842089e-16    
2.57526900501e-16    1.89800795336e-16    -2.54426769065e-16    1.55560905804e-16    -5.07588158521e-17    
-5.50224985684e-17    -3.71415085165e-17    1.85883883956e-16    3.52385499995e-16    -1.7026706732e-16    
2.61280873548e-16    1.99295674546e-16    -1.37185959752e-16    1.51352481024e-16    1.28381568855e-16    
-4.48809622557e-17    -6.23029375592e-17    1.34108892722e-16    3.52701200467e-16    -1.67545475999e-16    
1.03203021312e-15    9.7933348774e-16    6.16030770828e-16    9.6776045224e-16    9.08593599388e-16    
9.09355138851e-16    7.99000351579e-16    9.32382345257e-16    1.17527353577e-15    5.6295678386e-16    
2.2239994413e-13    2.23098357544e-13    2.22980023029e-13    2.23468099368e-13    2.23459353008e-13    
2.23341131239e-13    2.23186719512e-13    2.2320109499e-13    2.23616958693e-13    2.21905519421e-13    
5.17087463718e-11    5.18677517267e-11    5.1869044375e-11    5.18688059823e-11    5.18687925686e-11    
5.18687456569e-11    5.18687909241e-11    5.18682418816e-11    5.18686238712e-11    5.17079784239e-11    
9.8701952713e-09    9.89851182755e-09    9.89862738217e-09    9.89862830993e-09    9.89862830135e-09    
9.89862829745e-09    9.89862807374e-09    9.8986269796e-09    9.89851116634e-09    9.87019559021e-09    

9.87019568019e-09    5.17084116136e-11    2.21913872464e-13    8.66289729234e-16    3.01872109964e-17    
2.18317295031e-18    -8.46348893029e-16    -2.21872574721e-13    -5.17085716521e-11    -9.87019564597e-09    
9.89851154968e-09    5.18684533879e-11    2.23132790617e-13    1.44452947128e-15    5.10794385635e-16    
2.12244035952e-16    -6.25568910868e-16    -2.23022136002e-13    -5.18678047503e-11    -9.8985112939e-09    
9.89862711291e-09    5.18688763496e-11    2.2257949449e-13    7.65533806638e-16    -4.51397729824e-17    
-4.51972836384e-17    -8.65158626982e-16    -2.23216239836e-13    -5.18687316574e-11    -9.89862704909e-09    
9.89862764722e-09    5.18688768912e-11    2.23001497769e-13    1.09888118453e-15    3.41397310204e-16    
-4.03931154814e-17    -8.1295584289e-16    -2.23264386447e-13    -5.1868773906e-11    -9.89862759273e-09    
9.89862767367e-09    5.18689758517e-11    2.22826663406e-13    8.85159889425e-16    2.55287389421e-17    
2.52601146677e-17    -8.4893757016e-16    -2.23124217687e-13    -5.18687119641e-11    -9.89862763183e-09    
9.8986276609e-09    5.1868976564e-11    2.23028764456e-13    1.24187747498e-15    3.49162717635e-16    
2.46799824947e-17    -8.48608398942e-16    -2.23122915229e-13    -5.18687052287e-11    -9.89862763181e-09    
9.89862764375e-09    5.18689781344e-11    2.2279155609e-13    8.55210319698e-16    -6.59620872414e-18    
4.02612016983e-18    -8.32549234372e-16    -2.2307068099e-13    -5.18687742326e-11    -9.89862761746e-09    
9.89862723965e-09    5.18693285408e-11    2.2337223848e-13    1.56267617149e-15    6.55816235355e-16    
3.73818385081e-16    -5.10958126896e-16    -2.22872031595e-13    -5.18683963653e-11    -9.8986268219e-09    
9.89851146779e-09    5.18677416073e-11    2.22398059557e-13    5.96045375607e-16    -2.94485404468e-16    
-2.9281029155e-16    -1.0916490972e-15    -2.23396009438e-13    -5.18683582854e-11    -9.8985116431e-09    
9.87019567322e-09    5.17086736717e-11    2.21982436147e-13    8.93921334255e-16    6.43329046973e-17    
5.60828276547e-17    -8.04148574667e-16    -2.22414277107e-13    -5.17080441173e-11    -9.87019558463e-09    

2.67808676621e-17    3.28802786175e-17    2.93531971961e-17    5.28757691701e-17    2.75712614435e-17    
3.95482968477e-17    2.72708162231e-17    3.1409053841e-17    3.20727045994e-17    1.8886757763e-17    
4.87770558686e-17    2.53072991151e-17    4.63882043781e-17    2.31849928373e-17    3.05455712511e-17    
2.86521115333e-17    3.23831211164e-17    1.43569333939e-17    3.00715717625e-17    2.36485460583e-17    
4.48953441305e-17    2.96290388121e-17    6.38823218476e-17    1.86390793948e-17    3.26075490046e-17    
3.26138482016e-17    2.75314274308e-17    2.3115593519e-17    3.34909628873e-17    2.59125089707e-17    
3.2324558647e-17    3.14498122121e-17    3.9203384248e-17    4.02550056843e-17    4.30457957114e-17    
4.06094401389e-17    2.0844468166e-17    3.07626241688e-17    2.56145684158e-17    3.02759102481e-17    
2.41011429633e-17    4.08793414877e-17    2.05285370889e-17    4.4371486998e-17    2.59096289199e-17    
4.02099351177e-17    3.98997746831e-17    3.38580428195e-17    2.17178724242e-17    3.77220014713e-17    
2.07147752439e-17    4.07090713812e-17    3.15388829722e-17    4.34435621718e-17    3.66106840652e-17    
2.6045564562e-17    4.31063170424e-17    3.36852120237e-17    2.86884042819e-17    3.72937484688e-17    
4.41605864441e-17    3.01202750162e-17    2.34939327362e-17    4.37627551353e-17    4.21085144481e-17    
4.6154773868e-17    4.08937258794e-17    2.56093704244e-17    3.74586820643e-17    4.41661102446e-17    
2.30088735346e-17    3.51952541876e-17    1.94310451653e-17    2.95042153745e-17    1.43891870771e-17    
2.28238590619e-17    2.22256530242e-17    3.89168654003e-17    2.6409133364e-17    5.03417586257e-17    
1.57708667271e-17    4.07098576036e-17    4.0186068782e-17    3.14250445466e-17    3.29299394534e-17    
3.86886051114e-17    4.25805593892e-17    2.5616903056e-17    2.47768882783e-17    2.40313234784e-17    
3.43324479794e-17    4.0414459955e-17    3.26216210294e-17    3.28369203138e-17    2.64142212625e-17    
2.7996749383e-17    3.39867310063e-17    2.62927814596e-17    2.723902269e-17    1.77608172936e-17    

1.00000021834    1.00000022412    1.00000022415    1.00000022415    1.00000022415    
1.00000022415    1.00000022415    1.00000022415    1.00000022412    1.00000021834    
1.00000022412    1.00000022992    1.00000022995    1.00000022995    1.00000022995    
1.00000022995    1.00000022995    1.00000022995    1.00000022992    1.00000022412    
1.00000022415    1.00000022995    1.00000022999    1.00000022999    1.00000022999    
1.00000022999    1.00000022999    1.00000022999    1.00000022995    1.00000022415    
1.00000022415    1.00000022995    1.00000022999    1.00000022999    1.00000022999    
1.00000022999    1.00000022999    1.00000022999    1.00000022995    1.00000022415    
1.00000022415    1.00000022995    1.00000022999    1.00000022999    1.00000022999    
1.00000022999    1.00000022999    1.00000022999    1.00000022995    1.00000022415    
1.00000022415    1.00000022995    1.00000022999    1.00000022999    1.00000022999    
1.00000022999    1.00000022999    1.00000022999    1.00000022995    1.00000022415    
1.00000022415    1.00000022995    1.00000022999    1.00000022999    1.00000022999    
1.00000022999    1.00000022999    1.00000022999    1.00000022995    1.00000022415    
1.00000022415    1.00000022995    1.00000022999    1.00000022999    1.00000022999    
1.00000022999    1.00000022999    1.00000022999    1.00000022995    1.00000022415    
1.00000022412    1.00000022992    1.00000022995    1.00000022995    1.00000022995    
1.00000022995    1.00000022995    1.00000022995    1.00000022992    1.00000022412    
1.00000021834    1.00000022412    1.00000022415    1.00000022415    1.00000022415    
1.00000022415    1.00000022415    1.00000022415    1.00000022412    1.00000021834    

1.00001363944    1.00001366111    1.00001366121    1.00001366121    1.00001366121    
1.00001366121    1.00001366121    1.00001366121    1.00001366111    1.00001363944    
1.00001366111    1.00001368285    1.00001368295    1.00001368295    1.00001368295    
1.00001368295    1.00001368295    1.00001368295    1.00001368285    1.00001366111    
1.00001366121    1.00001368295    1.00001368305    1.00001368305    1.00001368305    
1.00001368305    1.00001368305    1.00001368305    1.00001368295    1.00001366121    
1.00001366121    1.00001368295    1.00001368305    1.00001368305    1.00001368305    
1.00001368305    1.00001368305    1.00001368305    1.00001368295    1.00001366121    
1.00001366121    1.00001368295    1.00001368305    1.00001368305    1.00001368305    
1.00001368305    1.00001368305    1.00001368305    1.00001368295    1.00001366121    
1.00001366121    1.00001368295    1.00001368305    1.00001368305    1.00001368305    
1.00001368305    1.00001368305    1.00001368305    1.00001368295    1.00001366121    
1.00001366121    1.00001368295    1.00001368305    1.00001368305    1.00001368305    
1.00001368305    1.00001368305    1.00001368305    1.00001368295    1.00001366121    
1.00001366121    1.00001368295    1.00001368305    1.00001368305    1.00001368305    
1.00001368305    1.00001368305    1.00001368305    1.00001368295    1.00001366121    
1.00001366111    1.00001368285    1.00001368295    1.00001368295    1.00001368295    
1.00001368295    1.00001368295    1.00001368295    1.00001368285    1.00001366111    
1.00001363944    1.00001366111    1.00001366121    1.00001366121    1.00001366121    
1.00001366121    1.00001366121    1.00001366121    1.00001366111    1.00001363944    

2.2503009489e-07    2.25030097786e-07    2.25030097798e-07    2.25030097798e-07    2.25030097798e-07    
2.25030097798e-07    2.25030097798e-07    2.25030097798e-07    2.25030097786e-07    2.2503009489e-07    
2.25030097786e-07    2.25030100691e-07    2.25030100703e-07    2.25030100703e-07    2.25030100703e-07    
2.25030100703e-07    2.25030100703e-07    2.25030100703e-07    2.25030100691e-07    2.25030097786e-07    
2.25030097798e-07    2.25030100703e-07    2.25030100715e-07    2.25030100715e-07    2.25030100715e-07    
2.25030100715e-07    2.25030100715e-07    2.25030100715e-07    2.25030100703e-07    2.25030097798e-07    
2.25030097798e-07    2.25030100703e-07    2.25030100715e-07    2.25030100715e-07    2.25030100715e-07    
2.25030100715e-07    2.25030100715e-07    2.25030100715e-07    2.25030100703e-07    2.25030097798e-07    
2.25030097798e-07    2.25030100703e-07    2.25030100715e-07    2.25030100715e-07    2.25030100715e-07    
2.25030100715e-07    2.25030100715e-07    2.25030100715e-07    2.25030100703e-07    2.25030097798e-07    
2.25030097798e-07    2.25030100703e-07    2.25030100715e-07    2.25030100715e-07    2.25030100715e-07    
2.25030100715e-07    2.25030100715e-07    2.25030100715e-07    2.25030100703e-07    2.25030097798e-07    
2.25030097798e-07    2.25030100703e-07    2.25030100715e-07    2.25030100715e-07    2.25030100715e-07    
2.25030100715e-07    2.25030100715e-07    2.25030100715e-07    2.25030100703e-07    2.25030097798e-07    
2.25030097798e-07    2.25030100703e-07    2.25030100715e-07    2.25030100715e-07    2.25030100715e-07    
2.25030100715e-07    2.25030100715e-07    2.25030100715e-07    2.25030100703e-07    2.25030097798e-07    
2.25030097786e-07    2.25030100691e-07    2.25030100703e-07    2.25030100703e-07    2.25030100703e-07    
2.25030100703e-07    2.25030100703e-07    2.25030100703e-07    2.25030100691e-07    2.25030097786e-07    
2.2503009489e-07    2.25030097786e-07    2.25030097798e-07    2.25030097798e-07    2.25030097798e-07    
2.25030097798e-07    2.25030097798e-07    2.25030097798e-07    2.25030097786e-07    2.2503009489e-07    

1.0000134211    1.00001343699    1.00001343705    1.00001343705    1.00001343705    
1.00001343705    1.00001343705    1.00001343705    1.00001343699    1.0000134211    
1.00001343699    1.00001345293    1.00001345299    1.00001345299    1.00001345299    
1.00001345299    1.00001345299    1.00001345299    1.00001345293    1.00001343699    
1.00001343705    1.00001345299    1.00001345306    1.00001345306    1.00001345306    
1.00001345306    1.00001345306    1.00001345306    1.00001345299    1.00001343705    
1.00001343705    1.00001345299    1.00001345306    1.00001345306    1.00001345306    
1.00001345306    1.00001345306    1.00001345306    1.00001345299    1.00001343705    
1.00001343705    1.00001345299    1.00001345306    1.00001345306    1.00001345306    
1.00001345306    1.00001345306    1.00001345306    1.00001345299    1.00001343705    
1.00001343705    1.00001345299    1.00001345306    1.00001345306    1.00001345306    
1.00001345306    1.00001345306    1.00001345306    1.00001345299    1.00001343705    
1.00001343705    1.00001345299    1.00001345306    1.00001345306    1.00001345306    
1.00001345306    1.00001345306    1.00001345306    1.00001345299    1.00001343705    
1.00001343705    1.00001345299    1.00001345306    1.00001345306    1.00001345306    
1.00001345306    1.00001345306    1.00001345306    1.00001345299    1.00001343705    
1.00001343699    1.00001345293    1.00001345299    1.00001345299    1.00001345299    
1.00001345299    1.00001345299    1.00001345299    1.00001345293    1.00001343699    
1.0000134211    1.00001343699    1.00001343705    1.00001343705    1.00001343705    
1.00001343705    1.00001343705    1.00001343705    1.00001343699    1.0000134211    

1239.53737715    1239.53738806    1239.53738812    1239.53738812    1239.53738812    
1239.53738812    1239.53738812    1239.53738812    1239.53738806    1239.53737715    
1239.53738806    1239.53739901    1239.53739906    1239.53739906    1239.53739906    
1239.53739906    1239.53739906    1239.53739906    1239.53739901    1239.53738806    
1239.53738812    1239.53739906    1239.53739912    1239.53739912    1239.53739912    
1239.53739912    1239.53739912    1239.53739912    1239.53739906    1239.53738812    
1239.53738812    1239.53739906    1239.53739912    1239.53739912    1239.53739912    
1239.53739912    1239.53739912    1239.53739912    1239.53739906    1239.53738812    
1239.53738812    1239.53739906    1239.53739912    1239.53739912    1239.53739912    
1239.53739912    1239.53739912    1239.53739912    1239.53739906    1239.53738812    
1239.53738812    1239.53739906    1239.53739912    1239.53739912    1239.53739912    
1239.53739912    1239.53739912    1239.53739912    1239.53739906    1239.53738812    
1239.53738812    1239.53739906    1239.53739912    1239.53739912    1239.53739912    
1239.53739912    1239.53739912    1239.53739912    1239.53739906    1239.53738812    
1239.53738812    1239.53739906    1239.53739912    1239.53739912    1239.53739912    
1239.53739912    1239.53739912    1239.53739912    1239.53739906    1239.53738812    
1239.53738806    1239.53739901    1239.53739906    1239.53739906    1239.53739906    
1239.53739906    1239.53739906    1239.53739906    1239.53739901    1239.53738806    
1239.53737715    1239.53738806    1239.53738812    1239.53738812    1239.53738812    
1239.53738812    1239.53738812    1239.53738812    1239.53738806    1239.53737715    

2     4     3     1     4     2     5     6     6     5     7     8     8     7     9     10     10     9     11     12     12     11     13     14     14     13     15     16     16     15     17     18     18     17     19     20     20     19     21     22     3     4     24     23     4     6     25     24     6     8     26     25     8     10     27     26     10     12     28     27     12     14     29     28     14     16     30     29     16     18     31     30     18     20     32     31     20     22     33     32     23     24     35     34     24     25     36     35     25     26     37     36     26     27     38     37     27     28     39     38     28     29     40     39     29     30     41     40     30     31     42     41     31     32     43     42     32     33     44     43     34     35     46     45     35     36     47     46     36     37     48     47     37     38     49     48     38     39     50     49     39     40     51     50     40     41     52     51     41     42     53     52     42     43     54     53     43     44     55     54     45     46     57     56     46     47     58     57     47     48     59     58     48     49     60     59     49     50     61     60     50     51     62     61     51     52     63     62     52     53     64     63     53     54     65     64     54     55     66     65     56     57     68     67     57     58     69     68     58     59     70     69     59     60     71     70     60     61     72     71     61     62     73     72     62     63     74     73     63     64     75     74     64     65     76     75     65     66     77     76     67     68     79     78     68     69     80     79     69     70     81     80     70     71     82     81     71     72     83     82     72     73     84     83     73     74     85     84     74     75     86     85     75     76     87     86     76     77     88     87     78     79     90     89     79     80     91     90     80     81     92     91     81     82     93     92     82     83     94     93     83     84     95     94     84     85     96     95     85     86     97     96     86     87     98     97     87     88     99     98     89     90     101     100     90     91     102     101     91     92     103     102     92     93     104     103     93     94     105     104     94     95     106     105     95     96     107     106     96     97     108     107     97     98     109     108     98     99     110     109     100     101     111     112     101     102     113     111     102     103     114     113     103     104     115     114     104     105     116     115     105     106     117     116     106     107     118     117     107     108     119     118     108     109     120     119     109     110     121     120     

