Title = " tecplot out file" 
variables = "x", "y", "z", "velX", "velY", "velZ","density","pressure","viscosity","temperature", "collisionFrequency",
Zone T = "nmesh0" N = 121 E = 100 DATAPACKING = BLOCK, VARLOCATION = ([4-11]=CELLCENTERED),  ZONETYPE=FEQUADRILATERAL 
0.0    
0.0    
0.1    
0.1    
0.0    

0.1    
0.0    
0.1    
0.0    
0.1    

0.0    
0.1    
0.0    
0.1    
0.0    

0.1    
0.0    
0.1    
0.0    
0.1    

0.0    
0.1    
0.2    
0.2    
0.2    

0.2    
0.2    
0.2    
0.2    
0.2    

0.2    
0.2    
0.2    
0.3    
0.3    

0.3    
0.3    
0.3    
0.3    
0.3    

0.3    
0.3    
0.3    
0.3    
0.4    

0.4    
0.4    
0.4    
0.4    
0.4    

0.4    
0.4    
0.4    
0.4    
0.4    

0.5    
0.5    
0.5    
0.5    
0.5    

0.5    
0.5    
0.5    
0.5    
0.5    

0.5    
0.6    
0.6    
0.6    
0.6    

0.6    
0.6    
0.6    
0.6    
0.6    

0.6    
0.6    
0.7    
0.7    
0.7    

0.7    
0.7    
0.7    
0.7    
0.7    

0.7    
0.7    
0.7    
0.8    
0.8    

0.8    
0.8    
0.8    
0.8    
0.8    

0.8    
0.8    
0.8    
0.8    
0.9    

0.9    
0.9    
0.9    
0.9    
0.9    

0.9    
0.9    
0.9    
0.9    
0.9    

1.0    
1.0    
1.0    
1.0    
1.0    

1.0    
1.0    
1.0    
1.0    
1.0    

1.0    
1.0    
0.9    
1.0    
0.9    
0.8    

0.8    
0.7    
0.7    
0.6    
0.6    

0.5    
0.5    
0.4    
0.4    
0.3    

0.3    
0.2    
0.2    
0.1    
0.1    

0.0    
0.0    
1.0    
0.9    
0.8    

0.7    
0.6    
0.5    
0.4    
0.3    

0.2    
0.1    
0.0    
1.0    
0.9    

0.8    
0.7    
0.6    
0.5    
0.4    

0.3    
0.2    
0.1    
0.0    
1.0    

0.9    
0.8    
0.7    
0.6    
0.5    

0.4    
0.3    
0.2    
0.1    
0.0    

1.0    
0.9    
0.8    
0.7    
0.6    

0.5    
0.4    
0.3    
0.2    
0.1    

0.0    
1.0    
0.9    
0.8    
0.7    

0.6    
0.5    
0.4    
0.3    
0.2    

0.1    
0.0    
1.0    
0.9    
0.8    

0.7    
0.6    
0.5    
0.4    
0.3    

0.2    
0.1    
0.0    
1.0    
0.9    

0.8    
0.7    
0.6    
0.5    
0.4    

0.3    
0.2    
0.1    
0.0    
1.0    

0.9    
0.8    
0.7    
0.6    
0.5    

0.4    
0.3    
0.2    
0.1    
0.0    

0.9    
1.0    
0.8    
0.7    
0.6    

0.5    
0.4    
0.3    
0.2    
0.1    

0.0    
0.0    0.0    0.0    0.0    0.0    
0.0    0.0    0.0    0.0    0.0    
0.0    0.0    0.0    0.0    0.0    
0.0    0.0    0.0    0.0    0.0    
0.0    0.0    0.0    0.0    0.0    
0.0    0.0    0.0    0.0    0.0    
0.0    0.0    0.0    0.0    0.0    
0.0    0.0    0.0    0.0    0.0    
0.0    0.0    0.0    0.0    0.0    
0.0    0.0    0.0    0.0    0.0    
0.0    0.0    0.0    0.0    0.0    
0.0    0.0    0.0    0.0    0.0    
0.0    0.0    0.0    0.0    0.0    
0.0    0.0    0.0    0.0    0.0    
0.0    0.0    0.0    0.0    0.0    
0.0    0.0    0.0    0.0    0.0    
0.0    0.0    0.0    0.0    0.0    
0.0    0.0    0.0    0.0    0.0    
0.0    0.0    0.0    0.0    0.0    
0.0    0.0    0.0    0.0    0.0    
0.0    0.0    0.0    0.0    0.0    
0.0    0.0    0.0    0.0    0.0    
0.0    0.0    0.0    0.0    0.0    
0.0    0.0    0.0    0.0    0.0    
0.0    
-3.82770780498e-08    -3.84866542916e-08    -3.84881106004e-08    -3.84881199434e-08    -3.84881196139e-08    
-3.84881196235e-08    -3.8488119633e-08    -3.84881110432e-08    -3.84866539247e-08    -3.82770775476e-08    
-3.60719507439e-10    -3.62821521579e-10    -3.62835365263e-10    -3.62835422667e-10    -3.62835396726e-10    
-3.62835703756e-10    -3.62835791692e-10    -3.62837463687e-10    -3.62819010036e-10    -3.60720221788e-10    
-2.69302663293e-12    -2.70873341495e-12    -2.7086493659e-12    -2.70868770333e-12    -2.70882644984e-12    
-2.7088345223e-12    -2.70836587588e-12    -2.71017918069e-12    -2.70728834727e-12    -2.69082252556e-12    
-1.83960878038e-14    -1.86040777931e-14    -1.73555608988e-14    -1.78917510587e-14    -1.67752546862e-14    
-1.81784216111e-14    -1.77242423509e-14    -2.01003299126e-14    -1.68457852289e-14    -1.67869257608e-14    
-8.92850213004e-16    -1.25400060631e-16    2.91543881656e-17    5.28740297594e-17    6.85370159971e-17    
5.62833044232e-17    9.419549869e-17    -9.4376135919e-16    6.11420436134e-16    7.28114038085e-16    
-6.35624445026e-16    1.62926778157e-16    5.44858002892e-16    5.86451235487e-16    6.52180557411e-16    
2.48463541059e-16    3.64316683993e-16    -7.30294526432e-16    7.50532613697e-16    9.27379526562e-16    
1.68010085152e-14    1.76257968135e-14    1.77650388113e-14    1.79173876752e-14    1.74854022385e-14    
1.7468527815e-14    1.74433559762e-14    1.66564423584e-14    1.85525662523e-14    1.82379337274e-14    
2.69095147042e-12    2.70940345081e-12    2.71013188167e-12    2.71022131418e-12    2.71038949897e-12    
2.70993121374e-12    2.71002635099e-12    2.70848785381e-12    2.71047375406e-12    2.69392232368e-12    
3.60720383343e-10    3.62819564009e-10    3.62835827028e-10    3.62835539853e-10    3.62835183643e-10    
3.62835209184e-10    3.62835483827e-10    3.62834457938e-10    3.62821846138e-10    3.60719029531e-10    
3.82770777308e-08    3.84866540068e-08    3.84881111521e-08    3.84881198205e-08    3.84881199936e-08    
3.84881200061e-08    3.8488120412e-08    3.84881095701e-08    3.84866551301e-08    3.82770781728e-08    

3.82770780816e-08    3.60719475845e-10    2.69156888004e-12    1.75658243631e-14    1.87270116586e-16    
-3.71125895804e-17    -1.73749284604e-14    -2.69132491146e-12    -3.60720391594e-10    -3.82770778437e-08    
3.84866545993e-08    3.62821883961e-10    2.70938223795e-12    1.92840599337e-14    1.70887564949e-15    
5.0759818822e-16    -1.70147866823e-14    -2.70919025494e-12    -3.62819768813e-10    -3.84866539414e-08    
3.84881101611e-08    3.62835778544e-10    2.70760045511e-12    1.73728056573e-14    -1.77782514526e-16    
-3.53280857668e-16    -1.78710681929e-14    -2.7102984648e-12    -3.62835563288e-10    -3.84881104497e-08    
3.84881199705e-08    3.62835792054e-10    2.70905173414e-12    1.8365513018e-14    1.15249682836e-15    
-3.9871237006e-16    -1.7567455372e-14    -2.71034680251e-12    -3.6283561741e-10    -3.84881198006e-08    
3.84881200566e-08    3.62836197376e-10    2.70808892314e-12    1.77119421546e-14    9.40172690855e-17    
-5.41673219552e-17    -1.75711984474e-14    -2.70966490958e-12    -3.62835521192e-10    -3.84881198779e-08    
3.84881200433e-08    3.62836208455e-10    2.70895844831e-12    1.87760650733e-14    1.21127310557e-15    
-4.13485308605e-17    -1.75670279668e-14    -2.70965896863e-12    -3.62835544011e-10    -3.84881199364e-08    
3.84881199469e-08    3.62836203037e-10    2.70811891745e-12    1.77243424217e-14    1.16663997169e-16    
-5.49418550991e-17    -1.76009638425e-14    -2.70972910503e-12    -3.62835615005e-10    -3.84881198132e-08    
3.84881106286e-08    3.62837434454e-10    2.71030342067e-12    2.00422715978e-14    2.53757558956e-15    
1.15204836554e-15    -1.64545363526e-14    -2.70862539657e-12    -3.62834392947e-10    -3.84881094161e-08    
3.84866540987e-08    3.62819227163e-10    2.70670136841e-12    1.66080806714e-14    -9.22009390811e-16    
-1.12175719776e-15    -1.86814952386e-14    -2.71067061964e-12    -3.62821803974e-10    -3.84866549959e-08    
3.82770780334e-08    3.60720578032e-10    2.6916157807e-12    1.75628609035e-14    1.30107986736e-16    
-5.65632885826e-17    -1.74828015637e-14    -2.69324047761e-12    -3.60718557422e-10    -3.82770779681e-08    

4.59399331892e-17    4.3291178666e-17    2.20016059028e-17    3.30259758293e-17    4.30769167201e-17    
3.90468630872e-17    2.91491102746e-17    2.46696489858e-17    3.21981845103e-17    2.7848637928e-17    
3.79814903132e-17    1.22423018594e-17    4.70041574904e-17    1.22014955026e-17    1.85053691996e-17    
2.08487428277e-17    5.14686567948e-17    6.06584611128e-17    4.97316124197e-17    3.14584027446e-17    
2.97250866018e-17    3.35061243607e-17    2.65921143461e-17    3.92967541155e-17    4.74366928835e-17    
4.40184771754e-17    3.36894870955e-17    2.14963541439e-17    2.55199233452e-17    3.50200411917e-17    
4.31327855878e-17    1.39154240239e-17    3.25057769068e-17    3.3289380389e-17    3.78445253333e-17    
4.30619379092e-17    3.03371887513e-17    2.22949157222e-17    2.87617677857e-17    4.22601767858e-17    
3.2215596393e-17    2.77868669095e-17    3.84795471455e-17    3.59638000382e-17    2.16310382385e-17    
2.6994777019e-17    3.53323754757e-17    4.31985098591e-17    1.83369060207e-17    2.2980297019e-17    
2.76994833272e-17    3.47767998128e-17    3.23698405668e-17    3.36067565248e-17    3.34179074262e-17    
3.83849227655e-17    2.51476189058e-17    5.07359033589e-17    4.03909342451e-17    1.45807626621e-17    
2.66441815373e-17    5.33412280755e-17    3.28133752279e-17    3.64424848266e-17    5.13201631736e-17    
3.67479842517e-17    3.31144147616e-17    1.8903400072e-17    2.76533553598e-17    3.42734894699e-17    
3.96901167958e-17    3.17483677879e-17    2.02732436874e-17    3.94889064862e-17    2.0289768144e-17    
2.97776290516e-17    2.49047927671e-17    2.12160489938e-17    3.89276329342e-17    4.0571572189e-17    
3.26813471641e-17    3.6404961343e-17    4.222670577e-17    2.70632272253e-17    3.94107150088e-17    
3.05573185455e-17    5.34991393609e-17    5.75478958178e-17    2.7203714397e-17    2.92679624443e-17    
4.95414687401e-17    1.50131793463e-17    3.48100465185e-17    2.87872934746e-17    3.99697789558e-17    
2.96019901421e-17    4.19741310138e-17    1.71337914176e-17    3.84416106383e-17    1.67329793381e-17    

1.00000099116    1.00000101343    1.00000101367    1.00000101367    1.00000101367    
1.00000101367    1.00000101367    1.00000101367    1.00000101343    1.00000099116    
1.00000101343    1.00000103587    1.00000103611    1.00000103611    1.00000103611    
1.00000103611    1.00000103611    1.00000103611    1.00000103587    1.00000101343    
1.00000101367    1.00000103611    1.00000103635    1.00000103635    1.00000103635    
1.00000103635    1.00000103635    1.00000103635    1.00000103611    1.00000101367    
1.00000101367    1.00000103611    1.00000103635    1.00000103635    1.00000103635    
1.00000103635    1.00000103635    1.00000103635    1.00000103611    1.00000101367    
1.00000101367    1.00000103611    1.00000103635    1.00000103635    1.00000103635    
1.00000103635    1.00000103635    1.00000103635    1.00000103611    1.00000101367    
1.00000101367    1.00000103611    1.00000103635    1.00000103635    1.00000103635    
1.00000103635    1.00000103635    1.00000103635    1.00000103611    1.00000101367    
1.00000101367    1.00000103611    1.00000103635    1.00000103635    1.00000103635    
1.00000103635    1.00000103635    1.00000103635    1.00000103611    1.00000101367    
1.00000101367    1.00000103611    1.00000103635    1.00000103635    1.00000103635    
1.00000103635    1.00000103635    1.00000103635    1.00000103611    1.00000101367    
1.00000101343    1.00000103587    1.00000103611    1.00000103611    1.00000103611    
1.00000103611    1.00000103611    1.00000103611    1.00000103587    1.00000101343    
1.00000099116    1.00000101343    1.00000101367    1.00000101367    1.00000101367    
1.00000101367    1.00000101367    1.00000101367    1.00000101343    1.00000099116    

1.00002156436    1.00002164809    1.00002164877    1.00002164877    1.00002164877    
1.00002164877    1.00002164877    1.00002164877    1.00002164809    1.00002156436    
1.00002164809    1.00002173236    1.00002173304    1.00002173304    1.00002173304    
1.00002173304    1.00002173304    1.00002173304    1.00002173236    1.00002164809    
1.00002164877    1.00002173304    1.00002173372    1.00002173372    1.00002173372    
1.00002173372    1.00002173372    1.00002173372    1.00002173304    1.00002164877    
1.00002164877    1.00002173304    1.00002173372    1.00002173373    1.00002173373    
1.00002173373    1.00002173373    1.00002173372    1.00002173304    1.00002164877    
1.00002164877    1.00002173304    1.00002173372    1.00002173373    1.00002173373    
1.00002173373    1.00002173373    1.00002173372    1.00002173304    1.00002164877    
1.00002164877    1.00002173304    1.00002173372    1.00002173373    1.00002173373    
1.00002173373    1.00002173373    1.00002173372    1.00002173304    1.00002164877    
1.00002164877    1.00002173304    1.00002173372    1.00002173373    1.00002173373    
1.00002173373    1.00002173373    1.00002173372    1.00002173304    1.00002164877    
1.00002164877    1.00002173304    1.00002173372    1.00002173372    1.00002173372    
1.00002173372    1.00002173372    1.00002173372    1.00002173304    1.00002164877    
1.00002164809    1.00002173236    1.00002173304    1.00002173304    1.00002173304    
1.00002173304    1.00002173304    1.00002173304    1.00002173236    1.00002164809    
1.00002156436    1.00002164809    1.00002164877    1.00002164877    1.00002164877    
1.00002164877    1.00002164877    1.00002164877    1.00002164809    1.00002156436    

2.25031398512e-07    2.25031409715e-07    2.25031409794e-07    2.25031409795e-07    2.25031409795e-07    
2.25031409795e-07    2.25031409795e-07    2.25031409794e-07    2.25031409715e-07    2.25031398512e-07    
2.25031409715e-07    2.25031420984e-07    2.25031421064e-07    2.25031421064e-07    2.25031421064e-07    
2.25031421064e-07    2.25031421064e-07    2.25031421064e-07    2.25031420984e-07    2.25031409715e-07    
2.25031409794e-07    2.25031421064e-07    2.25031421144e-07    2.25031421144e-07    2.25031421144e-07    
2.25031421144e-07    2.25031421144e-07    2.25031421144e-07    2.25031421064e-07    2.25031409794e-07    
2.25031409795e-07    2.25031421064e-07    2.25031421144e-07    2.25031421145e-07    2.25031421145e-07    
2.25031421145e-07    2.25031421145e-07    2.25031421144e-07    2.25031421064e-07    2.25031409795e-07    
2.25031409795e-07    2.25031421064e-07    2.25031421144e-07    2.25031421145e-07    2.25031421145e-07    
2.25031421145e-07    2.25031421145e-07    2.25031421144e-07    2.25031421064e-07    2.25031409795e-07    
2.25031409795e-07    2.25031421064e-07    2.25031421144e-07    2.25031421145e-07    2.25031421145e-07    
2.25031421145e-07    2.25031421145e-07    2.25031421144e-07    2.25031421064e-07    2.25031409795e-07    
2.25031409795e-07    2.25031421064e-07    2.25031421144e-07    2.25031421145e-07    2.25031421145e-07    
2.25031421145e-07    2.25031421145e-07    2.25031421144e-07    2.25031421064e-07    2.25031409795e-07    
2.25031409794e-07    2.25031421064e-07    2.25031421144e-07    2.25031421144e-07    2.25031421144e-07    
2.25031421144e-07    2.25031421144e-07    2.25031421144e-07    2.25031421064e-07    2.25031409794e-07    
2.25031409715e-07    2.25031420984e-07    2.25031421064e-07    2.25031421064e-07    2.25031421064e-07    
2.25031421064e-07    2.25031421064e-07    2.25031421064e-07    2.25031420984e-07    2.25031409715e-07    
2.25031398512e-07    2.25031409715e-07    2.25031409794e-07    2.25031409795e-07    2.25031409795e-07    
2.25031409795e-07    2.25031409795e-07    2.25031409794e-07    2.25031409715e-07    2.25031398512e-07    

1.00002057318    1.00002063464    1.00002063508    1.00002063508    1.00002063508    
1.00002063508    1.00002063508    1.00002063508    1.00002063464    1.00002057318    
1.00002063464    1.00002069647    1.0000206969    1.00002069691    1.00002069691    
1.00002069691    1.00002069691    1.0000206969    1.00002069647    1.00002063464    
1.00002063508    1.0000206969    1.00002069734    1.00002069735    1.00002069735    
1.00002069735    1.00002069735    1.00002069734    1.0000206969    1.00002063508    
1.00002063508    1.00002069691    1.00002069735    1.00002069735    1.00002069735    
1.00002069735    1.00002069735    1.00002069735    1.00002069691    1.00002063508    
1.00002063508    1.00002069691    1.00002069735    1.00002069735    1.00002069735    
1.00002069735    1.00002069735    1.00002069735    1.00002069691    1.00002063508    
1.00002063508    1.00002069691    1.00002069735    1.00002069735    1.00002069735    
1.00002069735    1.00002069735    1.00002069735    1.00002069691    1.00002063508    
1.00002063508    1.00002069691    1.00002069735    1.00002069735    1.00002069735    
1.00002069735    1.00002069735    1.00002069735    1.00002069691    1.00002063508    
1.00002063508    1.0000206969    1.00002069734    1.00002069735    1.00002069735    
1.00002069735    1.00002069735    1.00002069734    1.0000206969    1.00002063508    
1.00002063464    1.00002069647    1.0000206969    1.00002069691    1.00002069691    
1.00002069691    1.00002069691    1.0000206969    1.00002069647    1.00002063464    
1.00002057318    1.00002063464    1.00002063508    1.00002063508    1.00002063508    
1.00002063508    1.00002063508    1.00002063508    1.00002063464    1.00002057318    

1239.54001947    1239.54006155    1239.54006195    1239.54006195    1239.54006195    
1239.54006195    1239.54006195    1239.54006195    1239.54006155    1239.54001947    
1239.54006155    1239.54010393    1239.54010433    1239.54010433    1239.54010433    
1239.54010433    1239.54010433    1239.54010433    1239.54010393    1239.54006155    
1239.54006195    1239.54010433    1239.54010473    1239.54010473    1239.54010473    
1239.54010473    1239.54010473    1239.54010473    1239.54010433    1239.54006195    
1239.54006195    1239.54010433    1239.54010473    1239.54010473    1239.54010473    
1239.54010473    1239.54010473    1239.54010473    1239.54010433    1239.54006195    
1239.54006195    1239.54010433    1239.54010473    1239.54010473    1239.54010473    
1239.54010473    1239.54010473    1239.54010473    1239.54010433    1239.54006195    
1239.54006195    1239.54010433    1239.54010473    1239.54010473    1239.54010473    
1239.54010473    1239.54010473    1239.54010473    1239.54010433    1239.54006195    
1239.54006195    1239.54010433    1239.54010473    1239.54010473    1239.54010473    
1239.54010473    1239.54010473    1239.54010473    1239.54010433    1239.54006195    
1239.54006195    1239.54010433    1239.54010473    1239.54010473    1239.54010473    
1239.54010473    1239.54010473    1239.54010473    1239.54010433    1239.54006195    
1239.54006155    1239.54010393    1239.54010433    1239.54010433    1239.54010433    
1239.54010433    1239.54010433    1239.54010433    1239.54010393    1239.54006155    
1239.54001947    1239.54006155    1239.54006195    1239.54006195    1239.54006195    
1239.54006195    1239.54006195    1239.54006195    1239.54006155    1239.54001947    

2     4     3     1     4     2     5     6     6     5     7     8     8     7     9     10     10     9     11     12     12     11     13     14     14     13     15     16     16     15     17     18     18     17     19     20     20     19     21     22     3     4     24     23     4     6     25     24     6     8     26     25     8     10     27     26     10     12     28     27     12     14     29     28     14     16     30     29     16     18     31     30     18     20     32     31     20     22     33     32     23     24     35     34     24     25     36     35     25     26     37     36     26     27     38     37     27     28     39     38     28     29     40     39     29     30     41     40     30     31     42     41     31     32     43     42     32     33     44     43     34     35     46     45     35     36     47     46     36     37     48     47     37     38     49     48     38     39     50     49     39     40     51     50     40     41     52     51     41     42     53     52     42     43     54     53     43     44     55     54     45     46     57     56     46     47     58     57     47     48     59     58     48     49     60     59     49     50     61     60     50     51     62     61     51     52     63     62     52     53     64     63     53     54     65     64     54     55     66     65     56     57     68     67     57     58     69     68     58     59     70     69     59     60     71     70     60     61     72     71     61     62     73     72     62     63     74     73     63     64     75     74     64     65     76     75     65     66     77     76     67     68     79     78     68     69     80     79     69     70     81     80     70     71     82     81     71     72     83     82     72     73     84     83     73     74     85     84     74     75     86     85     75     76     87     86     76     77     88     87     78     79     90     89     79     80     91     90     80     81     92     91     81     82     93     92     82     83     94     93     83     84     95     94     84     85     96     95     85     86     97     96     86     87     98     97     87     88     99     98     89     90     101     100     90     91     102     101     91     92     103     102     92     93     104     103     93     94     105     104     94     95     106     105     95     96     107     106     96     97     108     107     97     98     109     108     98     99     110     109     100     101     111     112     101     102     113     111     102     103     114     113     103     104     115     114     104     105     116     115     105     106     117     116     106     107     118     117     107     108     119     118     108     109     120     119     109     110     121     120     

