Title = " tecplot out file" 
variables = "x", "y", "z", "velX", "velY", "velZ","density","pressure","viscosity","temperature", "collisionFrequency",
Zone T = "nmesh0" N = 121 E = 100 DATAPACKING = BLOCK, VARLOCATION = ([4-11]=CELLCENTERED),  ZONETYPE=FEQUADRILATERAL 
0.0    
0.0    
0.1    
0.1    
0.0    

0.1    
0.0    
0.1    
0.0    
0.1    

0.0    
0.1    
0.0    
0.1    
0.0    

0.1    
0.0    
0.1    
0.0    
0.1    

0.0    
0.1    
0.2    
0.2    
0.2    

0.2    
0.2    
0.2    
0.2    
0.2    

0.2    
0.2    
0.2    
0.3    
0.3    

0.3    
0.3    
0.3    
0.3    
0.3    

0.3    
0.3    
0.3    
0.3    
0.4    

0.4    
0.4    
0.4    
0.4    
0.4    

0.4    
0.4    
0.4    
0.4    
0.4    

0.5    
0.5    
0.5    
0.5    
0.5    

0.5    
0.5    
0.5    
0.5    
0.5    

0.5    
0.6    
0.6    
0.6    
0.6    

0.6    
0.6    
0.6    
0.6    
0.6    

0.6    
0.6    
0.7    
0.7    
0.7    

0.7    
0.7    
0.7    
0.7    
0.7    

0.7    
0.7    
0.7    
0.8    
0.8    

0.8    
0.8    
0.8    
0.8    
0.8    

0.8    
0.8    
0.8    
0.8    
0.9    

0.9    
0.9    
0.9    
0.9    
0.9    

0.9    
0.9    
0.9    
0.9    
0.9    

1.0    
1.0    
1.0    
1.0    
1.0    

1.0    
1.0    
1.0    
1.0    
1.0    

1.0    
1.0    
0.9    
1.0    
0.9    
0.8    

0.8    
0.7    
0.7    
0.6    
0.6    

0.5    
0.5    
0.4    
0.4    
0.3    

0.3    
0.2    
0.2    
0.1    
0.1    

0.0    
0.0    
1.0    
0.9    
0.8    

0.7    
0.6    
0.5    
0.4    
0.3    

0.2    
0.1    
0.0    
1.0    
0.9    

0.8    
0.7    
0.6    
0.5    
0.4    

0.3    
0.2    
0.1    
0.0    
1.0    

0.9    
0.8    
0.7    
0.6    
0.5    

0.4    
0.3    
0.2    
0.1    
0.0    

1.0    
0.9    
0.8    
0.7    
0.6    

0.5    
0.4    
0.3    
0.2    
0.1    

0.0    
1.0    
0.9    
0.8    
0.7    

0.6    
0.5    
0.4    
0.3    
0.2    

0.1    
0.0    
1.0    
0.9    
0.8    

0.7    
0.6    
0.5    
0.4    
0.3    

0.2    
0.1    
0.0    
1.0    
0.9    

0.8    
0.7    
0.6    
0.5    
0.4    

0.3    
0.2    
0.1    
0.0    
1.0    

0.9    
0.8    
0.7    
0.6    
0.5    

0.4    
0.3    
0.2    
0.1    
0.0    

0.9    
1.0    
0.8    
0.7    
0.6    

0.5    
0.4    
0.3    
0.2    
0.1    

0.0    
0.0    0.0    0.0    0.0    0.0    
0.0    0.0    0.0    0.0    0.0    
0.0    0.0    0.0    0.0    0.0    
0.0    0.0    0.0    0.0    0.0    
0.0    0.0    0.0    0.0    0.0    
0.0    0.0    0.0    0.0    0.0    
0.0    0.0    0.0    0.0    0.0    
0.0    0.0    0.0    0.0    0.0    
0.0    0.0    0.0    0.0    0.0    
0.0    0.0    0.0    0.0    0.0    
0.0    0.0    0.0    0.0    0.0    
0.0    0.0    0.0    0.0    0.0    
0.0    0.0    0.0    0.0    0.0    
0.0    0.0    0.0    0.0    0.0    
0.0    0.0    0.0    0.0    0.0    
0.0    0.0    0.0    0.0    0.0    
0.0    0.0    0.0    0.0    0.0    
0.0    0.0    0.0    0.0    0.0    
0.0    0.0    0.0    0.0    0.0    
0.0    0.0    0.0    0.0    0.0    
0.0    0.0    0.0    0.0    0.0    
0.0    0.0    0.0    0.0    0.0    
0.0    0.0    0.0    0.0    0.0    
0.0    0.0    0.0    0.0    0.0    
0.0    
-2.17795513533e-08    -2.18704293486e-08    -2.18709348182e-08    -2.18709376707e-08    -2.18709377025e-08    
-2.18709377043e-08    -2.18709376051e-08    -2.18709348689e-08    -2.18704286215e-08    -2.17795520485e-08    
-1.60704327209e-10    -1.61420879541e-10    -1.61424005044e-10    -1.61424388112e-10    -1.61424291192e-10    
-1.61424573159e-10    -1.61424391747e-10    -1.61425142575e-10    -1.61418973577e-10    -1.60705185177e-10    
-9.53015975481e-13    -9.57107400815e-13    -9.57185220404e-13    -9.56453761521e-13    -9.56683385533e-13    
-9.56707306102e-13    -9.56856152082e-13    -9.57870556019e-13    -9.56165105618e-13    -9.51910979028e-13    
-5.26215578317e-15    -5.7200676063e-15    -4.78012400014e-15    -5.3567202795e-15    -4.6549558596e-15    
-5.44182942811e-15    -4.91034459198e-15    -6.56342069883e-15    -4.33861995939e-15    -4.84074449779e-15    
-3.07805904895e-16    -1.06234807825e-16    1.01582848504e-16    -1.55831336896e-17    -6.58632965198e-17    
-9.50587042287e-17    1.3358562107e-16    -6.08050071709e-16    6.91658815275e-16    2.02059171471e-17    
-2.90195760194e-16    -9.2834418028e-17    3.34728559072e-16    2.56274697431e-16    1.28420027478e-16    
-8.41640278169e-17    1.5830510912e-16    -5.92483762305e-16    7.07459011264e-16    1.89020429611e-16    
4.9658404792e-15    4.91457084906e-15    5.13928861861e-15    4.95981799172e-15    4.95164307647e-15    
4.99712342306e-15    5.02658639292e-15    4.23117794339e-15    5.64765277665e-15    5.2144159121e-15    
9.52034728882e-13    9.57590172749e-13    9.5766976391e-13    9.57687249504e-13    9.57740929384e-13    
9.57480471601e-13    9.57340241853e-13    9.57278884766e-13    9.58034070802e-13    9.53472761127e-13    
1.60705110115e-10    1.61419284974e-10    1.61424190327e-10    1.61424189099e-10    1.61424390587e-10    
1.61424410481e-10    1.61424604886e-10    1.61423315767e-10    1.61421206321e-10    1.60704250104e-10    
2.17795521203e-08    2.18704285091e-08    2.18709350438e-08    2.1870937718e-08    2.18709377873e-08    
2.18709377822e-08    2.1870937753e-08    2.18709344007e-08    2.18704300006e-08    2.177955142e-08    

2.17795518735e-08    1.60704379761e-10    9.52099504693e-13    5.02415505439e-15    8.652619995e-17    
2.12322485513e-17    -4.89291257051e-15    -9.51890028145e-13    -1.60704865757e-10    -2.17795517039e-08    
2.18704287773e-08    1.61420798353e-10    9.57439652044e-13    6.01077391486e-15    1.02586816362e-15    
3.70933112665e-16    -4.60965218377e-15    -9.57284317701e-13    -1.61419507258e-10    -2.18704284033e-08    
2.18709346695e-08    1.61424269203e-10    9.5626653858e-13    4.79653147525e-15    -1.59626019675e-16    
-2.04895357658e-16    -5.16033420653e-15    -9.57916482193e-13    -1.6142411098e-10    -2.18709347689e-08    
2.1870937543e-08    1.6142425964e-10    9.57174885262e-13    5.47387411018e-15    6.65515686212e-16    
-2.20333985865e-16    -4.91370713228e-15    -9.57933838128e-13    -1.61424154099e-10    -2.18709374364e-08    
2.18709376315e-08    1.6142451691e-10    9.56664112978e-13    5.03401326714e-15    3.01024005673e-17    
-1.50014764821e-17    -4.89157402167e-15    -9.57561140029e-13    -1.61424040959e-10    -2.18709374519e-08    
2.18709376215e-08    1.61424558597e-10    9.57199468165e-13    5.72581863293e-15    6.90828783785e-16    
-1.44793846931e-17    -4.90686002999e-15    -9.57571922069e-13    -1.61424084032e-10    -2.18709374856e-08    
2.18709376309e-08    1.61424544584e-10    9.5667610124e-13    5.05838001091e-15    4.15954017638e-17    
-3.93461603378e-17    -4.92904118274e-15    -9.57554044533e-13    -1.61424121278e-10    -2.18709374693e-08    
2.18709349591e-08    1.61425312352e-10    9.57928040791e-13    6.43692652795e-15    1.52476993505e-15    
7.58016295709e-16    -4.28102463013e-15    -9.56910101584e-13    -1.61423447644e-10    -2.18709341141e-08    
2.18704284995e-08    1.61419244976e-10    9.55873453648e-13    4.39045721173e-15    -5.21748241256e-16    
-6.07340573879e-16    -5.59573537012e-15    -9.5817095944e-13    -1.6142068441e-10    -2.18704290314e-08    
2.17795518137e-08    1.60705022962e-10    9.5212303809e-13    5.00926778673e-15    3.6453354067e-17    
-1.18975750873e-17    -4.86736194468e-15    -9.5310014356e-13    -1.60703744659e-10    -2.1779551741e-08    

4.45207054351e-17    2.84805338641e-17    3.29936075458e-17    3.37471353594e-17    3.22606200824e-17    
3.92527981115e-17    2.57929685414e-17    2.40103008068e-17    2.34197028216e-17    4.64258218574e-17    
4.84260891386e-17    2.37849229984e-17    3.7448912951e-17    6.94433300795e-18    3.39660775565e-17    
3.09280839958e-17    4.09546462275e-17    4.18398022392e-17    1.67508120427e-17    5.41434480776e-17    
3.97623767146e-17    3.25754312833e-17    5.15022954422e-17    1.30311876027e-17    2.80501971139e-17    
2.96139394976e-17    3.94485550412e-17    3.02151231321e-17    1.42193724774e-17    3.7010803439e-17    
3.72637188187e-17    1.57072321724e-17    2.22357154726e-17    2.9666660268e-17    4.70704451615e-17    
2.93404367408e-17    5.41072636609e-17    3.24139901666e-17    4.23263042336e-17    2.21756223199e-17    
3.42704943546e-17    3.8907328926e-17    2.43905813303e-17    3.91187130568e-17    3.57391534476e-17    
1.91506335258e-17    4.33261112457e-17    2.60515336913e-17    2.874704598e-17    2.99430128325e-17    
3.26676595692e-17    3.33670410818e-17    2.30934178193e-17    4.90104229579e-17    3.2147270541e-17    
4.74709289897e-17    3.33854554035e-17    2.49145581448e-17    3.15100740776e-17    2.77916941055e-17    
2.04938857444e-17    3.96354030171e-17    5.50650171289e-17    5.20139741594e-17    2.96571623297e-17    
3.94710935262e-17    4.29347637294e-17    3.61361397355e-17    4.59051649347e-17    5.00032565826e-17    
2.59599668555e-17    3.2934703883e-17    3.54308824225e-17    3.78481927647e-17    3.81853497266e-17    
2.5364049024e-17    2.35639072026e-18    3.36339051293e-17    2.94151015346e-17    3.83771509129e-17    
2.75738732706e-17    1.79619701146e-17    1.79911103119e-17    4.97664569633e-17    2.93186006888e-17    
2.95379748967e-17    4.22444338113e-17    2.9598057722e-17    3.60565511618e-17    2.37430293527e-17    
5.21913300118e-17    3.61001500144e-17    2.91682415225e-17    2.83414287586e-17    2.98888451851e-17    
4.00054298103e-17    3.58925960677e-17    2.51979322378e-17    5.23689764105e-17    6.43729720583e-18    

1.00000060745    1.00000062016    1.00000062027    1.00000062027    1.00000062027    
1.00000062027    1.00000062027    1.00000062027    1.00000062016    1.00000060745    
1.00000062016    1.00000063295    1.00000063305    1.00000063306    1.00000063306    
1.00000063306    1.00000063306    1.00000063305    1.00000063295    1.00000062016    
1.00000062027    1.00000063305    1.00000063316    1.00000063316    1.00000063316    
1.00000063316    1.00000063316    1.00000063316    1.00000063305    1.00000062027    
1.00000062027    1.00000063306    1.00000063316    1.00000063316    1.00000063316    
1.00000063316    1.00000063316    1.00000063316    1.00000063306    1.00000062027    
1.00000062027    1.00000063306    1.00000063316    1.00000063316    1.00000063316    
1.00000063316    1.00000063316    1.00000063316    1.00000063306    1.00000062027    
1.00000062027    1.00000063306    1.00000063316    1.00000063316    1.00000063316    
1.00000063316    1.00000063316    1.00000063316    1.00000063306    1.00000062027    
1.00000062027    1.00000063306    1.00000063316    1.00000063316    1.00000063316    
1.00000063316    1.00000063316    1.00000063316    1.00000063306    1.00000062027    
1.00000062027    1.00000063305    1.00000063316    1.00000063316    1.00000063316    
1.00000063316    1.00000063316    1.00000063316    1.00000063305    1.00000062027    
1.00000062016    1.00000063295    1.00000063305    1.00000063306    1.00000063306    
1.00000063306    1.00000063306    1.00000063305    1.00000063295    1.00000062016    
1.00000060745    1.00000062016    1.00000062027    1.00000062027    1.00000062027    
1.00000062027    1.00000062027    1.00000062027    1.00000062016    1.00000060745    

1.00001761217    1.0000176599    1.0000176602    1.0000176602    1.0000176602    
1.0000176602    1.0000176602    1.0000176602    1.0000176599    1.00001761217    
1.0000176599    1.00001770786    1.00001770816    1.00001770816    1.00001770816    
1.00001770816    1.00001770816    1.00001770816    1.00001770786    1.0000176599    
1.0000176602    1.00001770816    1.00001770846    1.00001770847    1.00001770847    
1.00001770847    1.00001770847    1.00001770846    1.00001770816    1.0000176602    
1.0000176602    1.00001770816    1.00001770847    1.00001770847    1.00001770847    
1.00001770847    1.00001770847    1.00001770847    1.00001770816    1.0000176602    
1.0000176602    1.00001770816    1.00001770847    1.00001770847    1.00001770847    
1.00001770847    1.00001770847    1.00001770847    1.00001770816    1.0000176602    
1.0000176602    1.00001770816    1.00001770847    1.00001770847    1.00001770847    
1.00001770847    1.00001770847    1.00001770847    1.00001770816    1.0000176602    
1.0000176602    1.00001770816    1.00001770847    1.00001770847    1.00001770847    
1.00001770847    1.00001770847    1.00001770847    1.00001770816    1.0000176602    
1.0000176602    1.00001770816    1.00001770846    1.00001770847    1.00001770847    
1.00001770847    1.00001770847    1.00001770846    1.00001770816    1.0000176602    
1.0000176599    1.00001770786    1.00001770816    1.00001770816    1.00001770816    
1.00001770816    1.00001770816    1.00001770816    1.00001770786    1.0000176599    
1.00001761217    1.0000176599    1.0000176602    1.0000176602    1.0000176602    
1.0000176602    1.0000176602    1.0000176602    1.0000176599    1.00001761217    

2.25030748081e-07    2.25030754463e-07    2.25030754499e-07    2.25030754499e-07    2.25030754499e-07    
2.25030754499e-07    2.25030754499e-07    2.25030754499e-07    2.25030754463e-07    2.25030748081e-07    
2.25030754463e-07    2.25030760874e-07    2.2503076091e-07    2.2503076091e-07    2.2503076091e-07    
2.2503076091e-07    2.2503076091e-07    2.2503076091e-07    2.25030760874e-07    2.25030754463e-07    
2.25030754499e-07    2.2503076091e-07    2.25030760946e-07    2.25030760947e-07    2.25030760947e-07    
2.25030760947e-07    2.25030760947e-07    2.25030760946e-07    2.2503076091e-07    2.25030754499e-07    
2.25030754499e-07    2.2503076091e-07    2.25030760947e-07    2.25030760947e-07    2.25030760947e-07    
2.25030760947e-07    2.25030760947e-07    2.25030760947e-07    2.2503076091e-07    2.25030754499e-07    
2.25030754499e-07    2.2503076091e-07    2.25030760947e-07    2.25030760947e-07    2.25030760947e-07    
2.25030760947e-07    2.25030760947e-07    2.25030760947e-07    2.2503076091e-07    2.25030754499e-07    
2.25030754499e-07    2.2503076091e-07    2.25030760947e-07    2.25030760947e-07    2.25030760947e-07    
2.25030760947e-07    2.25030760947e-07    2.25030760947e-07    2.2503076091e-07    2.25030754499e-07    
2.25030754499e-07    2.2503076091e-07    2.25030760947e-07    2.25030760947e-07    2.25030760947e-07    
2.25030760947e-07    2.25030760947e-07    2.25030760947e-07    2.2503076091e-07    2.25030754499e-07    
2.25030754499e-07    2.2503076091e-07    2.25030760946e-07    2.25030760947e-07    2.25030760947e-07    
2.25030760947e-07    2.25030760947e-07    2.25030760946e-07    2.2503076091e-07    2.25030754499e-07    
2.25030754463e-07    2.25030760874e-07    2.2503076091e-07    2.2503076091e-07    2.2503076091e-07    
2.2503076091e-07    2.2503076091e-07    2.2503076091e-07    2.25030760874e-07    2.25030754463e-07    
2.25030748081e-07    2.25030754463e-07    2.25030754499e-07    2.25030754499e-07    2.25030754499e-07    
2.25030754499e-07    2.25030754499e-07    2.25030754499e-07    2.25030754463e-07    2.25030748081e-07    

1.00001700471    1.00001703972    1.00001703992    1.00001703992    1.00001703992    
1.00001703992    1.00001703992    1.00001703992    1.00001703972    1.00001700471    
1.00001703972    1.0000170749    1.00001707509    1.0000170751    1.0000170751    
1.0000170751    1.0000170751    1.00001707509    1.0000170749    1.00001703972    
1.00001703992    1.00001707509    1.00001707529    1.00001707529    1.00001707529    
1.00001707529    1.00001707529    1.00001707529    1.00001707509    1.00001703992    
1.00001703992    1.0000170751    1.00001707529    1.0000170753    1.0000170753    
1.0000170753    1.0000170753    1.00001707529    1.0000170751    1.00001703992    
1.00001703992    1.0000170751    1.00001707529    1.0000170753    1.0000170753    
1.0000170753    1.0000170753    1.00001707529    1.0000170751    1.00001703992    
1.00001703992    1.0000170751    1.00001707529    1.0000170753    1.0000170753    
1.0000170753    1.0000170753    1.00001707529    1.0000170751    1.00001703992    
1.00001703992    1.0000170751    1.00001707529    1.0000170753    1.0000170753    
1.0000170753    1.0000170753    1.00001707529    1.0000170751    1.00001703992    
1.00001703992    1.00001707509    1.00001707529    1.00001707529    1.00001707529    
1.00001707529    1.00001707529    1.00001707529    1.00001707509    1.00001703992    
1.00001703972    1.0000170749    1.00001707509    1.0000170751    1.0000170751    
1.0000170751    1.0000170751    1.00001707509    1.0000170749    1.00001703972    
1.00001700471    1.00001703972    1.00001703992    1.00001703992    1.00001703992    
1.00001703992    1.00001703992    1.00001703992    1.00001703972    1.00001700471    

1239.53870344    1239.53872745    1239.53872762    1239.53872763    1239.53872763    
1239.53872763    1239.53872763    1239.53872762    1239.53872745    1239.53870344    
1239.53872745    1239.53875158    1239.53875176    1239.53875176    1239.53875176    
1239.53875176    1239.53875176    1239.53875176    1239.53875158    1239.53872745    
1239.53872762    1239.53875176    1239.53875193    1239.53875194    1239.53875194    
1239.53875194    1239.53875194    1239.53875193    1239.53875176    1239.53872762    
1239.53872763    1239.53875176    1239.53875194    1239.53875194    1239.53875194    
1239.53875194    1239.53875194    1239.53875194    1239.53875176    1239.53872763    
1239.53872763    1239.53875176    1239.53875194    1239.53875194    1239.53875194    
1239.53875194    1239.53875194    1239.53875194    1239.53875176    1239.53872763    
1239.53872763    1239.53875176    1239.53875194    1239.53875194    1239.53875194    
1239.53875194    1239.53875194    1239.53875194    1239.53875176    1239.53872763    
1239.53872763    1239.53875176    1239.53875194    1239.53875194    1239.53875194    
1239.53875194    1239.53875194    1239.53875194    1239.53875176    1239.53872763    
1239.53872762    1239.53875176    1239.53875193    1239.53875194    1239.53875194    
1239.53875194    1239.53875194    1239.53875193    1239.53875176    1239.53872762    
1239.53872745    1239.53875158    1239.53875176    1239.53875176    1239.53875176    
1239.53875176    1239.53875176    1239.53875176    1239.53875158    1239.53872745    
1239.53870344    1239.53872745    1239.53872762    1239.53872763    1239.53872763    
1239.53872763    1239.53872763    1239.53872762    1239.53872745    1239.53870344    

2     4     3     1     4     2     5     6     6     5     7     8     8     7     9     10     10     9     11     12     12     11     13     14     14     13     15     16     16     15     17     18     18     17     19     20     20     19     21     22     3     4     24     23     4     6     25     24     6     8     26     25     8     10     27     26     10     12     28     27     12     14     29     28     14     16     30     29     16     18     31     30     18     20     32     31     20     22     33     32     23     24     35     34     24     25     36     35     25     26     37     36     26     27     38     37     27     28     39     38     28     29     40     39     29     30     41     40     30     31     42     41     31     32     43     42     32     33     44     43     34     35     46     45     35     36     47     46     36     37     48     47     37     38     49     48     38     39     50     49     39     40     51     50     40     41     52     51     41     42     53     52     42     43     54     53     43     44     55     54     45     46     57     56     46     47     58     57     47     48     59     58     48     49     60     59     49     50     61     60     50     51     62     61     51     52     63     62     52     53     64     63     53     54     65     64     54     55     66     65     56     57     68     67     57     58     69     68     58     59     70     69     59     60     71     70     60     61     72     71     61     62     73     72     62     63     74     73     63     64     75     74     64     65     76     75     65     66     77     76     67     68     79     78     68     69     80     79     69     70     81     80     70     71     82     81     71     72     83     82     72     73     84     83     73     74     85     84     74     75     86     85     75     76     87     86     76     77     88     87     78     79     90     89     79     80     91     90     80     81     92     91     81     82     93     92     82     83     94     93     83     84     95     94     84     85     96     95     85     86     97     96     86     87     98     97     87     88     99     98     89     90     101     100     90     91     102     101     91     92     103     102     92     93     104     103     93     94     105     104     94     95     106     105     95     96     107     106     96     97     108     107     97     98     109     108     98     99     110     109     100     101     111     112     101     102     113     111     102     103     114     113     103     104     115     114     104     105     116     115     105     106     117     116     106     107     118     117     107     108     119     118     108     109     120     119     109     110     121     120     

