Title = " tecplot out file" 
variables = "x", "y", "z", "velX", "velY", "velZ","density","pressure","viscosity","temperature", "collisionFrequency",
Zone T = "nmesh0" N = 121 E = 100 DATAPACKING = BLOCK, VARLOCATION = ([4-11]=CELLCENTERED),  ZONETYPE=FEQUADRILATERAL 
0.0    
0.0    
0.1    
0.1    
0.0    

0.1    
0.0    
0.1    
0.0    
0.1    

0.0    
0.1    
0.0    
0.1    
0.0    

0.1    
0.0    
0.1    
0.0    
0.1    

0.0    
0.1    
0.2    
0.2    
0.2    

0.2    
0.2    
0.2    
0.2    
0.2    

0.2    
0.2    
0.2    
0.3    
0.3    

0.3    
0.3    
0.3    
0.3    
0.3    

0.3    
0.3    
0.3    
0.3    
0.4    

0.4    
0.4    
0.4    
0.4    
0.4    

0.4    
0.4    
0.4    
0.4    
0.4    

0.5    
0.5    
0.5    
0.5    
0.5    

0.5    
0.5    
0.5    
0.5    
0.5    

0.5    
0.6    
0.6    
0.6    
0.6    

0.6    
0.6    
0.6    
0.6    
0.6    

0.6    
0.6    
0.7    
0.7    
0.7    

0.7    
0.7    
0.7    
0.7    
0.7    

0.7    
0.7    
0.7    
0.8    
0.8    

0.8    
0.8    
0.8    
0.8    
0.8    

0.8    
0.8    
0.8    
0.8    
0.9    

0.9    
0.9    
0.9    
0.9    
0.9    

0.9    
0.9    
0.9    
0.9    
0.9    

1.0    
1.0    
1.0    
1.0    
1.0    

1.0    
1.0    
1.0    
1.0    
1.0    

1.0    
1.0    
0.9    
1.0    
0.9    
0.8    

0.8    
0.7    
0.7    
0.6    
0.6    

0.5    
0.5    
0.4    
0.4    
0.3    

0.3    
0.2    
0.2    
0.1    
0.1    

0.0    
0.0    
1.0    
0.9    
0.8    

0.7    
0.6    
0.5    
0.4    
0.3    

0.2    
0.1    
0.0    
1.0    
0.9    

0.8    
0.7    
0.6    
0.5    
0.4    

0.3    
0.2    
0.1    
0.0    
1.0    

0.9    
0.8    
0.7    
0.6    
0.5    

0.4    
0.3    
0.2    
0.1    
0.0    

1.0    
0.9    
0.8    
0.7    
0.6    

0.5    
0.4    
0.3    
0.2    
0.1    

0.0    
1.0    
0.9    
0.8    
0.7    

0.6    
0.5    
0.4    
0.3    
0.2    

0.1    
0.0    
1.0    
0.9    
0.8    

0.7    
0.6    
0.5    
0.4    
0.3    

0.2    
0.1    
0.0    
1.0    
0.9    

0.8    
0.7    
0.6    
0.5    
0.4    

0.3    
0.2    
0.1    
0.0    
1.0    

0.9    
0.8    
0.7    
0.6    
0.5    

0.4    
0.3    
0.2    
0.1    
0.0    

0.9    
1.0    
0.8    
0.7    
0.6    

0.5    
0.4    
0.3    
0.2    
0.1    

0.0    
0.0    0.0    0.0    0.0    0.0    
0.0    0.0    0.0    0.0    0.0    
0.0    0.0    0.0    0.0    0.0    
0.0    0.0    0.0    0.0    0.0    
0.0    0.0    0.0    0.0    0.0    
0.0    0.0    0.0    0.0    0.0    
0.0    0.0    0.0    0.0    0.0    
0.0    0.0    0.0    0.0    0.0    
0.0    0.0    0.0    0.0    0.0    
0.0    0.0    0.0    0.0    0.0    
0.0    0.0    0.0    0.0    0.0    
0.0    0.0    0.0    0.0    0.0    
0.0    0.0    0.0    0.0    0.0    
0.0    0.0    0.0    0.0    0.0    
0.0    0.0    0.0    0.0    0.0    
0.0    0.0    0.0    0.0    0.0    
0.0    0.0    0.0    0.0    0.0    
0.0    0.0    0.0    0.0    0.0    
0.0    0.0    0.0    0.0    0.0    
0.0    0.0    0.0    0.0    0.0    
0.0    0.0    0.0    0.0    0.0    
0.0    0.0    0.0    0.0    0.0    
0.0    0.0    0.0    0.0    0.0    
0.0    0.0    0.0    0.0    0.0    
0.0    
-2.59437994009e-09    -2.59843907427e-09    -2.59844859677e-09    -2.59844882667e-09    -2.59844888207e-09    
-2.59844888207e-09    -2.59844882721e-09    -2.59844917222e-09    -2.59843885661e-09    -2.59437950208e-09    
-7.70311002464e-12    -7.71604308058e-12    -7.71607730168e-12    -7.71597838667e-12    -7.71597838624e-12    
-7.71601979887e-12    -7.71595493083e-12    -7.71611196775e-12    -7.71581990711e-12    -7.70266949451e-12    
-2.00036802159e-14    -1.91506842286e-14    -1.9648978245e-14    -1.95313045752e-14    -1.95310853733e-14    
-1.9531085433e-14    -1.95321373856e-14    -1.96879347032e-14    -1.99698121199e-14    -1.93192095114e-14    
-1.1040089642e-16    3.59444666281e-16    -4.99153536684e-17    3.38826843888e-17    1.50830220163e-16    
-2.15814344385e-17    1.26481018621e-16    -8.81110294894e-17    -4.04742191554e-16    1.73253484535e-16    
-7.84731159161e-17    4.78898128838e-16    -1.25490863337e-16    1.58219291964e-16    1.5823752992e-16    
1.57768482497e-16    1.98157388158e-16    9.45115979019e-17    -3.71385690883e-16    1.99859209206e-16    
-7.84449715231e-17    4.78997953679e-16    -1.45125879133e-17    1.9639835167e-16    1.96401907707e-16    
1.58238408173e-16    1.98161665021e-16    9.50514088489e-17    -3.71384671349e-16    1.99877376326e-16    
-2.28788545109e-17    5.27568637796e-16    -1.45130081211e-17    1.9639835167e-16    2.27627359198e-16    
2.27627359227e-16    2.67550616076e-16    9.50514092895e-17    -3.16634684455e-16    2.55545910965e-16    
1.96123255324e-14    2.01715033932e-14    1.97917448565e-14    1.97845563343e-14    1.97866623067e-14    
1.97871947998e-14    1.97790588045e-14    1.9739079998e-14    1.94525969132e-14    2.00279126371e-14    
7.70276129459e-12    7.71615446096e-12    7.71605560289e-12    7.71602962669e-12    7.71602969156e-12    
7.7160298444e-12    7.71602833034e-12    7.71630599927e-12    7.71638942213e-12    7.7030330303e-12    
2.59437970784e-09    2.59843888443e-09    2.59844900437e-09    2.59844903441e-09    2.59844906337e-09    
2.59844906314e-09    2.59844911361e-09    2.59844846137e-09    2.59843902672e-09    2.59437997081e-09    

2.59437973069e-09    7.70312402038e-12    1.9545479545e-14    9.5359050706e-17    5.97560250096e-17    
5.97560233549e-17    9.68198202813e-18    -1.94873515243e-14    -7.70312321362e-12    -2.59437963916e-09    
2.59843889195e-09    7.71656115164e-12    1.97539477582e-14    2.11735696164e-16    1.90010460733e-16    
1.06764506723e-16    7.2714217833e-17    -1.96162005953e-14    -7.71630663399e-12    -2.59843877746e-09    
2.59844888866e-09    7.71654511538e-12    1.95666982786e-14    1.05605987471e-17    -1.07162554166e-17    
-1.07433898551e-17    -4.37457801209e-17    -1.96856524864e-14    -7.71641640637e-12    -2.59844876645e-09    
2.59844894874e-09    7.71648876795e-12    1.97287030328e-14    1.28314182119e-16    8.93847994784e-17    
-1.17585241088e-17    -7.91247072813e-17    -1.97116494713e-14    -7.71643361919e-12    -2.5984488667e-09    
2.59844894992e-09    7.71651362104e-12    1.96741806942e-14    7.72708903099e-17    -7.3401262573e-18    
-7.45989025577e-18    -7.15937477367e-17    -1.96693792715e-14    -7.71642928814e-12    -2.59844886682e-09    
2.59844894995e-09    7.71651385727e-12    1.97019201777e-14    1.31491485334e-16    9.15391197029e-17    
-7.34013615612e-18    -7.15919338208e-17    -1.96693689572e-14    -7.71642930163e-12    -2.59844886683e-09    
2.59844895695e-09    7.71651103795e-12    1.96455416018e-14    1.65660351493e-17    1.34765497662e-17    
1.34765491607e-17    -4.38228008693e-17    -1.96832467474e-14    -7.71642969648e-12    -2.59844886682e-09    
2.59844889219e-09    7.71661966065e-12    1.98299199121e-14    2.21626774107e-16    2.07777608086e-16    
8.50650136385e-17    2.39762809156e-17    -1.96088279975e-14    -7.71629560709e-12    -2.59844870147e-09    
2.5984388772e-09    7.71632997504e-12    1.95345593503e-14    7.13801882216e-18    -2.91457356325e-17    
-2.84661725251e-17    -8.55980430107e-17    -1.97374507448e-14    -7.71649856311e-12    -2.59843885908e-09    
2.59437974069e-09    7.70321082464e-12    1.96256294671e-14    5.14555912614e-17    2.90549513636e-17    
2.89241393979e-17    -5.09675362712e-18    -1.96672827571e-14    -7.70297245061e-12    -2.59437968688e-09    

3.42968047609e-17    1.30016308313e-17    3.15336390688e-17    3.2154630084e-17    2.86851295863e-17    
2.86851304134e-17    2.17947409983e-17    2.87033905018e-17    2.02421871669e-17    2.65176134893e-17    
4.09717094607e-17    2.60893523681e-17    3.13912108537e-17    2.39134917321e-17    2.39168798645e-17    
2.39174370335e-17    2.29882934137e-17    1.71505138039e-17    2.45404291258e-17    3.3371616748e-17    
3.88815169934e-17    2.41967786151e-17    3.14930675971e-17    7.62767179197e-18    3.11964022423e-17    
3.11896195692e-17    1.90115803748e-17    1.66845159851e-17    3.43675899683e-17    2.88166815997e-17    
1.89618602324e-17    3.71151844409e-17    2.59585593719e-17    3.66194396244e-17    2.34903763599e-17    
3.31534563187e-17    2.93380605472e-17    3.17512355711e-17    3.11765693152e-17    2.31360233313e-17    
2.04701951117e-17    3.33897061202e-17    3.44591439018e-17    3.81089270256e-17    2.37969385096e-17    
2.38189627984e-17    3.1651769485e-17    2.29892840754e-17    2.91849714314e-17    3.21942921933e-17    
2.04706857545e-17    3.33373793248e-17    2.73010619926e-17    2.57514654174e-17    3.76747893087e-17    
2.37970123463e-17    3.16530179021e-17    2.30258673147e-17    2.91884366967e-17    1.83232389306e-17    
3.22642517951e-17    2.97018003754e-17    3.40163403613e-17    2.37998995147e-17    3.94095263199e-17    
3.94095263338e-17    3.59830510783e-17    2.30258673123e-17    2.18960035379e-17    3.39886007864e-17    
3.03989213508e-17    3.85545176e-17    1.33434981421e-17    2.30622263996e-17    1.6638973807e-17    
2.14837604503e-17    1.58401515731e-17    2.98224236538e-17    2.62631229854e-17    3.63185441628e-17    
4.32084007033e-17    3.61852929441e-17    2.88614475988e-17    3.73826678248e-17    2.34698412557e-17    
2.3508159867e-17    2.25639288561e-17    4.17875320762e-17    3.3482888282e-17    2.82790831298e-17    
2.15812575322e-17    2.37648467203e-17    2.20562667255e-17    3.34701092016e-17    3.53183107237e-17    
3.52882272442e-17    3.46015242333e-17    1.78014599951e-17    1.99372445029e-17    2.81876952502e-17    

0.999999823773    0.999999825298    0.999999825302    0.999999825302    0.999999825302    
0.999999825302    0.999999825302    0.999999825302    0.999999825298    0.999999823773    
0.999999825298    0.999999826825    0.99999982683    0.99999982683    0.99999982683    
0.99999982683    0.99999982683    0.99999982683    0.999999826825    0.999999825298    
0.999999825302    0.99999982683    0.999999826834    0.999999826834    0.999999826834    
0.999999826834    0.999999826834    0.999999826834    0.99999982683    0.999999825302    
0.999999825302    0.99999982683    0.999999826834    0.999999826834    0.999999826834    
0.999999826834    0.999999826834    0.999999826834    0.99999982683    0.999999825302    
0.999999825302    0.99999982683    0.999999826834    0.999999826834    0.999999826834    
0.999999826834    0.999999826834    0.999999826834    0.99999982683    0.999999825302    
0.999999825302    0.99999982683    0.999999826834    0.999999826834    0.999999826834    
0.999999826834    0.999999826834    0.999999826834    0.99999982683    0.999999825302    
0.999999825302    0.99999982683    0.999999826834    0.999999826834    0.999999826834    
0.999999826834    0.999999826834    0.999999826834    0.99999982683    0.999999825302    
0.999999825302    0.99999982683    0.999999826834    0.999999826834    0.999999826834    
0.999999826834    0.999999826834    0.999999826834    0.99999982683    0.999999825302    
0.999999825298    0.999999826825    0.99999982683    0.99999982683    0.99999982683    
0.99999982683    0.99999982683    0.99999982683    0.999999826825    0.999999825298    
0.999999823773    0.999999825298    0.999999825302    0.999999825302    0.999999825302    
0.999999825302    0.999999825302    0.999999825302    0.999999825298    0.999999823773    

1.00000964602    1.00000965173    1.00000965174    1.00000965174    1.00000965174    
1.00000965174    1.00000965174    1.00000965174    1.00000965173    1.00000964602    
1.00000965173    1.00000965744    1.00000965746    1.00000965746    1.00000965746    
1.00000965746    1.00000965746    1.00000965746    1.00000965744    1.00000965173    
1.00000965174    1.00000965746    1.00000965747    1.00000965747    1.00000965747    
1.00000965747    1.00000965747    1.00000965747    1.00000965746    1.00000965174    
1.00000965174    1.00000965746    1.00000965747    1.00000965747    1.00000965747    
1.00000965747    1.00000965747    1.00000965747    1.00000965746    1.00000965174    
1.00000965174    1.00000965746    1.00000965747    1.00000965747    1.00000965747    
1.00000965747    1.00000965747    1.00000965747    1.00000965746    1.00000965174    
1.00000965174    1.00000965746    1.00000965747    1.00000965747    1.00000965747    
1.00000965747    1.00000965747    1.00000965747    1.00000965746    1.00000965174    
1.00000965174    1.00000965746    1.00000965747    1.00000965747    1.00000965747    
1.00000965747    1.00000965747    1.00000965747    1.00000965746    1.00000965174    
1.00000965174    1.00000965746    1.00000965747    1.00000965747    1.00000965747    
1.00000965747    1.00000965747    1.00000965747    1.00000965746    1.00000965174    
1.00000965173    1.00000965744    1.00000965746    1.00000965746    1.00000965746    
1.00000965746    1.00000965746    1.00000965746    1.00000965744    1.00000965173    
1.00000964602    1.00000965173    1.00000965174    1.00000965174    1.00000965174    
1.00000965174    1.00000965174    1.00000965174    1.00000965173    1.00000964602    

2.2502943892e-07    2.25029439682e-07    2.25029439684e-07    2.25029439684e-07    2.25029439684e-07    
2.25029439684e-07    2.25029439684e-07    2.25029439684e-07    2.25029439682e-07    2.2502943892e-07    
2.25029439682e-07    2.25029440446e-07    2.25029440448e-07    2.25029440448e-07    2.25029440448e-07    
2.25029440448e-07    2.25029440448e-07    2.25029440448e-07    2.25029440446e-07    2.25029439682e-07    
2.25029439684e-07    2.25029440448e-07    2.25029440449e-07    2.25029440449e-07    2.25029440449e-07    
2.25029440449e-07    2.25029440449e-07    2.25029440449e-07    2.25029440448e-07    2.25029439684e-07    
2.25029439684e-07    2.25029440448e-07    2.25029440449e-07    2.25029440449e-07    2.25029440449e-07    
2.25029440449e-07    2.25029440449e-07    2.25029440449e-07    2.25029440448e-07    2.25029439684e-07    
2.25029439684e-07    2.25029440448e-07    2.25029440449e-07    2.25029440449e-07    2.25029440449e-07    
2.25029440449e-07    2.25029440449e-07    2.25029440449e-07    2.25029440448e-07    2.25029439684e-07    
2.25029439684e-07    2.25029440448e-07    2.25029440449e-07    2.25029440449e-07    2.25029440449e-07    
2.25029440449e-07    2.25029440449e-07    2.25029440449e-07    2.25029440448e-07    2.25029439684e-07    
2.25029439684e-07    2.25029440448e-07    2.25029440449e-07    2.25029440449e-07    2.25029440449e-07    
2.25029440449e-07    2.25029440449e-07    2.25029440449e-07    2.25029440448e-07    2.25029439684e-07    
2.25029439684e-07    2.25029440448e-07    2.25029440449e-07    2.25029440449e-07    2.25029440449e-07    
2.25029440449e-07    2.25029440449e-07    2.25029440449e-07    2.25029440448e-07    2.25029439684e-07    
2.25029439682e-07    2.25029440446e-07    2.25029440448e-07    2.25029440448e-07    2.25029440448e-07    
2.25029440448e-07    2.25029440448e-07    2.25029440448e-07    2.25029440446e-07    2.25029439682e-07    
2.2502943892e-07    2.25029439682e-07    2.25029439684e-07    2.25029439684e-07    2.25029439684e-07    
2.25029439684e-07    2.25029439684e-07    2.25029439684e-07    2.25029439682e-07    2.2502943892e-07    

1.00000982225    1.00000982643    1.00000982644    1.00000982644    1.00000982644    
1.00000982644    1.00000982644    1.00000982644    1.00000982643    1.00000982225    
1.00000982643    1.00000983062    1.00000983063    1.00000983063    1.00000983063    
1.00000983063    1.00000983063    1.00000983063    1.00000983062    1.00000982643    
1.00000982644    1.00000983063    1.00000983064    1.00000983064    1.00000983064    
1.00000983064    1.00000983064    1.00000983064    1.00000983063    1.00000982644    
1.00000982644    1.00000983063    1.00000983064    1.00000983064    1.00000983064    
1.00000983064    1.00000983064    1.00000983064    1.00000983063    1.00000982644    
1.00000982644    1.00000983063    1.00000983064    1.00000983064    1.00000983064    
1.00000983064    1.00000983064    1.00000983064    1.00000983063    1.00000982644    
1.00000982644    1.00000983063    1.00000983064    1.00000983064    1.00000983064    
1.00000983064    1.00000983064    1.00000983064    1.00000983063    1.00000982644    
1.00000982644    1.00000983063    1.00000983064    1.00000983064    1.00000983064    
1.00000983064    1.00000983064    1.00000983064    1.00000983063    1.00000982644    
1.00000982644    1.00000983063    1.00000983064    1.00000983064    1.00000983064    
1.00000983064    1.00000983064    1.00000983064    1.00000983063    1.00000982644    
1.00000982643    1.00000983062    1.00000983063    1.00000983063    1.00000983063    
1.00000983063    1.00000983063    1.00000983063    1.00000983062    1.00000982643    
1.00000982225    1.00000982643    1.00000982644    1.00000982644    1.00000982644    
1.00000982644    1.00000982644    1.00000982644    1.00000982643    1.00000982225    

1239.53604051    1239.53604339    1239.5360434    1239.5360434    1239.5360434    
1239.5360434    1239.5360434    1239.5360434    1239.53604339    1239.53604051    
1239.53604339    1239.53604627    1239.53604628    1239.53604628    1239.53604628    
1239.53604628    1239.53604628    1239.53604628    1239.53604627    1239.53604339    
1239.5360434    1239.53604628    1239.53604628    1239.53604628    1239.53604628    
1239.53604628    1239.53604628    1239.53604628    1239.53604628    1239.5360434    
1239.5360434    1239.53604628    1239.53604628    1239.53604628    1239.53604628    
1239.53604628    1239.53604628    1239.53604628    1239.53604628    1239.5360434    
1239.5360434    1239.53604628    1239.53604628    1239.53604628    1239.53604628    
1239.53604628    1239.53604628    1239.53604628    1239.53604628    1239.5360434    
1239.5360434    1239.53604628    1239.53604628    1239.53604628    1239.53604628    
1239.53604628    1239.53604628    1239.53604628    1239.53604628    1239.5360434    
1239.5360434    1239.53604628    1239.53604628    1239.53604628    1239.53604628    
1239.53604628    1239.53604628    1239.53604628    1239.53604628    1239.5360434    
1239.5360434    1239.53604628    1239.53604628    1239.53604628    1239.53604628    
1239.53604628    1239.53604628    1239.53604628    1239.53604628    1239.5360434    
1239.53604339    1239.53604627    1239.53604628    1239.53604628    1239.53604628    
1239.53604628    1239.53604628    1239.53604628    1239.53604627    1239.53604339    
1239.53604051    1239.53604339    1239.5360434    1239.5360434    1239.5360434    
1239.5360434    1239.5360434    1239.5360434    1239.53604339    1239.53604051    

2     4     3     1     4     2     5     6     6     5     7     8     8     7     9     10     10     9     11     12     12     11     13     14     14     13     15     16     16     15     17     18     18     17     19     20     20     19     21     22     3     4     24     23     4     6     25     24     6     8     26     25     8     10     27     26     10     12     28     27     12     14     29     28     14     16     30     29     16     18     31     30     18     20     32     31     20     22     33     32     23     24     35     34     24     25     36     35     25     26     37     36     26     27     38     37     27     28     39     38     28     29     40     39     29     30     41     40     30     31     42     41     31     32     43     42     32     33     44     43     34     35     46     45     35     36     47     46     36     37     48     47     37     38     49     48     38     39     50     49     39     40     51     50     40     41     52     51     41     42     53     52     42     43     54     53     43     44     55     54     45     46     57     56     46     47     58     57     47     48     59     58     48     49     60     59     49     50     61     60     50     51     62     61     51     52     63     62     52     53     64     63     53     54     65     64     54     55     66     65     56     57     68     67     57     58     69     68     58     59     70     69     59     60     71     70     60     61     72     71     61     62     73     72     62     63     74     73     63     64     75     74     64     65     76     75     65     66     77     76     67     68     79     78     68     69     80     79     69     70     81     80     70     71     82     81     71     72     83     82     72     73     84     83     73     74     85     84     74     75     86     85     75     76     87     86     76     77     88     87     78     79     90     89     79     80     91     90     80     81     92     91     81     82     93     92     82     83     94     93     83     84     95     94     84     85     96     95     85     86     97     96     86     87     98     97     87     88     99     98     89     90     101     100     90     91     102     101     91     92     103     102     92     93     104     103     93     94     105     104     94     95     106     105     95     96     107     106     96     97     108     107     97     98     109     108     98     99     110     109     100     101     111     112     101     102     113     111     102     103     114     113     103     104     115     114     104     105     116     115     105     106     117     116     106     107     118     117     107     108     119     118     108     109     120     119     109     110     121     120     

