title = " tecplot file for process Mesh " 
variables = "x",  "y", "z", "cell_type" 
zone N = 918 E = 4794 DATAPACKING = BLOCK,  VARLOCATION = ([4]=CELLCENTERED), ZONETYPE=FETETRAHEDRON 
4.291666e-01     
4.284215e-01     4.000000e-01     3.405134e-01     2.326277e-01     3.000000e-01     
2.468201e-01     2.000000e-01     5.000000e-01     5.000000e-01     3.995672e-01     
5.000000e-01     3.360099e-01     3.000000e-01     5.080864e-02     -3.540247e-02     
4.917966e-02     0.000000e+00     1.000000e-01     5.000000e-01     4.158415e-01     
5.000000e-01     5.000000e-01     1.332320e-01     1.489808e-01     2.383810e-01     
2.388790e-01     3.000000e-01     2.000000e-01     2.000000e-01     2.389279e-01     
2.315374e-01     3.000000e-01     1.373247e-01     1.370275e-01     5.000000e-01     
4.032532e-01     5.000000e-01     5.000000e-01     4.138776e-01     5.000000e-01     
5.000000e-01     5.000000e-01     4.129854e-01     5.000000e-01     3.444150e-01     
4.295167e-01     4.300614e-01     4.000000e-01     5.000000e-01     4.115682e-01     
5.000000e-01     2.393170e-01     2.315953e-01     2.000000e-01     5.162404e-02     
1.000000e-01     1.320931e-01     5.000000e-01     5.000000e-01     4.156594e-01     
5.000000e-01     4.128369e-01     5.000000e-01     5.000000e-01     5.000000e-01     
5.000000e-01     4.145841e-01     4.124834e-01     5.000000e-01     5.000000e-01     
5.000000e-01     -4.722246e-02     -1.000000e-01     1.373692e-01     4.157808e-01     
5.000000e-01     5.000000e-01     5.000000e-01     5.000000e-01     3.999159e-01     
5.000000e-01     4.304725e-01     5.000000e-01     5.000000e-01     4.138911e-01     
5.000000e-01     5.000000e-01     4.157591e-01     5.000000e-01     5.000000e-01     
5.000000e-01     4.127664e-01     5.000000e-01     5.000000e-01     5.000000e-01     
5.000000e-01     4.167259e-01     5.000000e-01     5.000000e-01     4.157596e-01     
5.000000e-01     5.000000e-01     4.098849e-01     5.000000e-01     0.000000e+00     
5.178851e-02     4.830228e-02     1.000000e-01     5.000000e-01     4.125669e-01     
5.000000e-01     5.000000e-01     4.164386e-01     4.322799e-01     5.000000e-01     
3.402390e-01     4.000000e-01     3.397702e-01     4.280829e-01     5.000000e-01     
4.098187e-01     5.000000e-01     -3.653955e-02     -1.000000e-01     -3.295755e-02     
5.000000e-01     4.324995e-01     5.000000e-01     5.000000e-01     5.000000e-01     
4.291383e-01     5.000000e-01     5.000000e-01     4.283602e-01     4.000000e-01     
3.986711e-01     5.000000e-01     5.000000e-01     5.000000e-01     5.000000e-01     
4.159608e-01     5.000000e-01     4.122947e-01     5.000000e-01     5.000000e-01     
4.315081e-01     1.377046e-01     1.321828e-01     4.113895e-01     5.000000e-01     
5.000000e-01     5.000000e-01     5.000000e-01     4.163453e-01     5.000000e-01     
3.994830e-01     5.000000e-01     5.000000e-01     5.000000e-01     3.368256e-01     
4.283365e-01     5.000000e-01     5.000000e-01     5.000000e-01     4.230521e-01     
5.000000e-01     5.000000e-01     5.000000e-01     5.000000e-01     4.303613e-01     
5.000000e-01     5.000000e-01     5.000000e-01     5.000000e-01     4.198149e-01     
5.000000e-01     5.000000e-01     5.000000e-01     5.000000e-01     5.000000e-01     
4.122529e-01     5.000000e-01     5.000000e-01     4.160512e-01     5.000000e-01     
5.000000e-01     5.000000e-01     4.106917e-01     5.000000e-01     4.221384e-01     
5.000000e-01     4.116530e-01     5.000000e-01     4.213862e-01     4.235157e-01     
4.216898e-01     4.189437e-01     5.000000e-01     4.099428e-01     5.000000e-01     
5.000000e-01     3.371435e-01     4.245291e-01     5.000000e-01     5.000000e-01     
3.400973e-01     4.064314e-01     5.000000e-01     5.000000e-01     4.224965e-01     
5.000000e-01     5.000000e-01     4.050492e-01     5.000000e-01     3.395765e-01     
5.000000e-01     4.152798e-01     5.000000e-01     5.000000e-01     5.000000e-01     
4.208522e-01     4.101700e-01     4.196692e-01     5.000000e-01     4.037152e-01     
5.000000e-01     5.000000e-01     4.182933e-01     5.000000e-01     4.187492e-01     
5.000000e-01     4.179799e-01     5.000000e-01     4.057430e-01     5.000000e-01     
4.045636e-01     5.000000e-01     4.198511e-01     4.057252e-01     5.000000e-01     
3.261820e-01     4.156964e-01     5.000000e-01     4.167851e-01     5.000000e-01     
4.108373e-01     5.000000e-01     5.000000e-01     4.175237e-01     5.000000e-01     
4.180293e-01     3.274481e-01     3.254416e-01     4.096621e-01     5.000000e-01     
4.176845e-01     3.267894e-01     4.106547e-01     5.000000e-01     3.238392e-01     
4.172429e-01     5.000000e-01     4.041428e-01     5.000000e-01     5.000000e-01     
4.144159e-01     4.073562e-01     4.039898e-01     5.000000e-01     4.085189e-01     
5.000000e-01     5.000000e-01     4.088398e-01     4.068689e-01     4.008310e-01     
4.052975e-01     5.000000e-01     7.535529e-02     4.558078e-02     5.410661e-02     
1.616572e-01     2.552965e-01     2.161830e-01     3.209921e-02     1.268115e-01     
7.527391e-02     1.391732e-01     1.659874e-01     2.404959e-01     2.841273e-01     
3.373877e-01     3.284685e-01     2.159937e-01     2.414977e-01     -1.760537e-01     
-8.154094e-02     -7.142103e-02     -1.366622e-01     -6.432137e-02     2.284486e-01     
2.930988e-01     3.223794e-01     2.343925e-01     2.200120e-01     2.672095e-01     
3.263200e-01     1.615903e-01     1.835402e-01     1.743233e-01     1.343435e-01     
1.739911e-01     2.947400e-01     -3.152366e-02     -2.498834e-02     -7.554057e-02     
-3.011868e-02     8.980139e-02     9.813176e-02     7.594516e-02     1.821804e-02     
-1.338303e-02     -1.430882e-02     -1.223302e-01     1.126964e-01     1.998937e-01     
3.241324e-01     4.200367e-02     -9.031392e-03     -5.995058e-02     -9.147264e-03     
-9.207013e-03     -6.869719e-02     5.022342e-02     2.179737e-01     1.641138e-01     
2.571796e-01     7.682920e-02     4.807595e-02     1.728584e-01     2.777140e-01     
2.245439e-01     2.825865e-01     3.260115e-01     2.233532e-01     2.693724e-01     
3.275843e-01     1.458173e-01     1.011689e-01     1.073171e-01     5.037238e-02     
-1.185787e-01     -1.174383e-01     2.869126e-01     2.839863e-01     1.501960e-01     
1.742860e-01     2.351653e-01     1.374968e-01     -7.986896e-02     -6.867730e-02     
1.827557e-01     1.742046e-01     1.014158e-01     1.038279e-01     -8.199876e-03     
2.256724e-01     1.986779e-01     2.284843e-01     2.583683e-01     3.209482e-01     
9.917837e-02     1.180346e-01     -9.600407e-03     2.977917e-01     3.230947e-01     
3.351150e-01     -1.173383e-01     -5.767558e-03     3.372304e-01     3.282220e-01     
1.388457e-01     1.257259e-01     1.647137e-01     2.398885e-01     3.315904e-02     
7.361816e-02     2.149701e-01     2.403081e-01     5.683595e-02     1.064663e-01     
1.101390e-01     1.524239e-01     2.551958e-01     3.057762e-01     3.359509e-01     
2.280630e-01     2.927288e-01     3.219014e-01     2.333272e-01     1.725313e-01     
1.318427e-01     2.198374e-01     2.122078e-01     2.940060e-01     -1.374316e-02     
-1.693979e-02     -3.081379e-02     2.532114e-02     1.007085e-02     -1.730534e-03     
-1.098876e-01     -5.419015e-02     9.010778e-02     9.831866e-02     4.238882e-03     
1.125923e-01     1.017773e-01     4.542300e-02     2.611884e-01     7.184389e-02     
1.355498e-01     9.603820e-02     1.950377e-01     9.913592e-02     5.342889e-02     
4.852548e-03     9.838253e-03     -2.876668e-02     2.752018e-02     7.124845e-02     
1.312488e-01     5.497633e-02     6.042708e-02     7.029767e-02     1.303272e-01     
2.558951e-02     5.775749e-02     3.348266e-01     2.894323e-01     2.937652e-01     
2.397050e-01     1.477181e-01     1.781592e-01     1.592226e-01     1.091621e-01     
1.120897e-01     1.549696e-01     2.303081e-01     2.816513e-01     2.849217e-01     
3.297242e-01     1.139965e-02     -5.374832e-02     1.749584e-01     2.318402e-01     
2.353253e-01     1.741537e-01     2.362427e-01     -1.117615e-01     -1.073216e-01     
-7.691147e-04     7.451989e-03     2.955133e-01     3.257731e-01     -5.895066e-02     
2.995110e-01     3.251468e-01     4.346364e-01     4.128872e-01     4.108916e-01     
4.183512e-01     4.162771e-01     5.000000e-01     4.206741e-01     3.567247e-01     
4.232745e-01     3.657682e-01     4.222639e-01     4.162213e-01     3.342662e-01     
4.164252e-01     4.168254e-01     4.201413e-01     4.077294e-01     3.935449e-01     
4.047434e-01     4.191087e-01     4.139700e-01     4.127968e-01     4.127808e-01     
4.044243e-01     4.112549e-01     4.209833e-01     4.199403e-01     4.108065e-01     
4.224014e-01     4.114264e-01     3.122917e-01     1.579027e-01     1.753817e-01     
4.256443e-01     -1.378000e-01     -9.253668e-03     -1.602308e-01     3.441565e-01     
2.302940e-01     2.397751e-01     1.196113e-01     -3.003020e-02     3.033129e-01     
-8.249390e-02     5.798689e-02     3.147205e-01     -1.653230e-01     -1.741321e-01     
3.471469e-01     1.987211e-01     3.087477e-01     1.961318e-01     7.397752e-02     
1.312557e-01     2.432708e-02     1.653039e-01     1.007869e-01     5.288504e-02     
1.016471e-01     -2.952837e-02     3.797276e-01     -9.388576e-02     4.251245e-01     
3.059595e-01     3.412820e-01     3.402839e-01     2.257497e-01     -1.455887e-02     
1.074770e-01     1.772043e-01     3.300659e-01     1.283474e-02     8.695869e-02     
1.598904e-01     7.343925e-04     1.236821e-01     2.294465e-01     3.478584e-01     
1.734785e-01     2.088979e-01     -7.212862e-02     8.497506e-02     -4.205179e-02     
2.608432e-01     1.766192e-02     3.129668e-01     3.854274e-01     3.549314e-01     
3.245082e-01     3.989734e-01     3.287299e-01     3.217735e-01     4.085175e-01     
4.242607e-01     3.697653e-01     3.855291e-01     3.150052e-01     3.584103e-01     
3.483688e-01     -7.644417e-02     1.294970e-01     2.540741e-02     4.672397e-02     
-1.840360e-01     -1.508407e-01     3.566587e-01     3.462075e-01     2.385831e-01     
3.524303e-01     3.179778e-01     3.469242e-01     2.825846e-01     4.568436e-02     
1.761356e-01     3.600535e-01     3.796425e-01     2.445006e-01     3.326454e-01     
2.756920e-01     3.216928e-01     2.291232e-01     4.041414e-02     2.351180e-01     
1.635917e-01     2.714558e-01     1.800400e-01     1.260943e-01     1.030467e-01     
2.374924e-01     3.537607e-01     9.417713e-02     -8.715891e-02     -8.912863e-02     
3.063264e-01     3.542714e-01     3.138869e-01     2.550536e-01     4.351436e-02     
4.238071e-01     3.300526e-01     1.324135e-01     2.484531e-01     2.987331e-01     
3.027383e-01     2.896198e-01     2.520400e-01     3.348320e-01     2.706521e-01     
3.207333e-01     3.281580e-01     3.203314e-01     2.753953e-01     2.094841e-01     
3.102990e-01     3.634810e-01     2.747904e-01     3.415252e-01     2.859465e-01     
2.637406e-01     1.639466e-01     3.186261e-02     1.586154e-01     4.733284e-02     
4.150350e-02     5.099820e-02     -7.259330e-02     -4.116511e-02     -7.803892e-02     
-5.687357e-02     -9.244673e-02     3.571105e-01     2.925369e-01     3.377007e-01     
2.553297e-01     2.833963e-01     -6.117448e-02     2.691185e-01     2.888664e-01     
1.826480e-01     2.013146e-01     2.496232e-01     3.455114e-01     3.228332e-01     
2.873197e-01     3.297590e-01     1.760071e-01     2.002770e-01     1.097455e-01     
3.379978e-01     2.854133e-01     -8.321667e-02     -1.549392e-01     -4.494119e-02     
1.216839e-01     1.970003e-01     1.344816e-01     1.984868e-01     2.364088e-01     
3.399738e-01     3.162134e-02     2.312966e-01     1.713239e-01     1.627360e-01     
1.596909e-01     1.706483e-01     -9.875752e-02     -2.636471e-02     -1.294957e-01     
-1.770669e-01     3.277954e-01     2.332139e-01     2.322446e-01     2.352976e-01     
1.586663e-02     -1.493282e-02     -1.801793e-02     6.172850e-02     2.018539e-01     
3.696570e-01     3.053391e-01     2.004760e-01     2.290357e-01     1.294959e-01     
2.025246e-01     1.723560e-01     1.379049e-01     3.195085e-01     3.198512e-01     
3.309286e-01     3.412021e-01     2.188093e-01     2.964894e-01     3.328683e-01     
3.409599e-01     4.014865e-01     3.244468e-01     2.776291e-01     -3.954632e-02     
2.518770e-01     2.262415e-01     1.694549e-01     6.426166e-02     1.064675e-01     
9.941892e-02     1.096724e-01     -1.321488e-03     -4.979227e-03     -9.169678e-02     
-1.592612e-01     3.918877e-02     1.316131e-01     2.272211e-01     1.039903e-01     
1.569956e-01     2.034474e-01     2.046196e-01     1.429798e-02     4.069688e-02     
-3.237491e-02     3.356618e-02     5.670359e-02     -4.958399e-02     -8.172463e-03     
-1.449325e-01     -1.869388e-01     -9.680503e-02     -1.347634e-01     -2.062115e-01     
3.693300e-02     -3.245935e-02     3.991298e-02     -1.117969e-02     9.265160e-02     
3.383085e-02     -1.376859e-01     2.109819e-01     1.155761e-01     1.156640e-01     
1.576681e-01     3.342766e-01     4.192457e-01     2.349369e-01     -1.341925e-02     
-1.324063e-01     2.447976e-01     1.861441e-01     3.339947e-01     -1.961513e-01     
-1.720812e-01     -8.676880e-02     3.374313e-01     3.031765e-01     1.936646e-01     
9.507482e-02     3.249805e-01     3.490453e-02     2.624738e-01     1.504191e-01     
5.218213e-02     2.789008e-01     2.703795e-01     -5.147096e-02     3.438444e-02     
-7.505978e-02     -4.244873e-03     1.088349e-01     -4.118508e-02     1.972600e-01     
1.570651e-01     1.676496e-01     3.219331e-02     7.720621e-02     1.989850e-01     
1.016838e-01     2.496945e-01     -4.975425e-02     -2.491532e-01     -1.874367e-01     
-2.343745e-01     -1.280405e-01     2.742418e-01     -1.442420e-01     2.772326e-01     
2.942512e-01     3.278424e-01     2.873769e-01     7.790079e-02     1.364820e-01     
1.133502e-02     9.822835e-05     -1.060894e-01     5.703769e-02     8.387819e-02     
1.696001e-01     7.905179e-02     9.249366e-02     2.813883e-02     5.146898e-02     
1.498652e-01     1.277205e-01     8.985814e-02     3.014563e-01     1.158583e-01     
2.110073e-01     1.447527e-01     2.905901e-02     -1.957481e-02     1.559192e-01     
2.590701e-01     1.326207e-01     2.333877e-01     1.573082e-01     4.498285e-02     
-2.178522e-02     -8.906240e-02     1.450589e-01     1.281992e-01     2.407601e-01     
1.954645e-01     1.414686e-01     4.927584e-02     2.133663e-02     9.976539e-02     
2.167192e-01     1.626396e-01     1.222356e-01     1.587556e-02     7.949834e-02     
-4.701431e-02     -1.160884e-01     -1.283116e-01     -7.154611e-02     -5.282128e-02     
1.062512e-01     -1.478879e-01     3.612759e-01     2.363186e-01     2.739562e-01     
2.626427e-01     2.364907e-01     2.446918e-01     2.306298e-01     2.566635e-01     
3.301622e-01     3.144869e-01     -4.619762e-02     -6.584375e-02     -1.660979e-01     
2.202300e-01     1.353615e-01     1.084511e-01     1.859918e-01     1.507115e-02     
2.597917e-01     2.533067e-01     -8.680247e-03     -3.165824e-02     9.402633e-03     
6.713383e-02     1.228397e-01     2.622141e-02     1.131434e-01     4.206163e-02     
9.364570e-02     9.027723e-02     -5.846766e-02     1.201253e-01     1.152956e-01     
2.477107e-01     -1.194042e-01     -1.979535e-02     -1.980450e-02     -3.809240e-02     
-9.481050e-02     2.118781e-01     -1.901810e-01     1.340859e-01     -9.435983e-02     
-7.328833e-02     4.099856e-02     -7.100724e-02     2.500251e-03     2.567880e-02     
-4.579973e-02     -2.441756e-02     1.961222e-01     6.810363e-02     1.377003e-01     
-1.179282e-01     -1.243483e-01     -1.471830e-02     3.651089e-03     -4.193098e-03     
1.754286e-01     1.930056e-01     3.579116e-01     4.433114e-01     4.357722e-01     
2.809662e-01     2.323347e-01     2.626539e-01     1.856247e-01     8.936246e-02     
1.290798e-01     2.026841e-01     5.290087e-02     4.158654e-03     3.014280e-01     
-1.184857e-01     1.918974e-01     
5.000000e-01     
4.295968e-01     5.000000e-01     4.165746e-01     -5.000000e-01     -5.000000e-01     
-4.161305e-01     -5.000000e-01     3.996975e-01     5.000000e-01     5.000000e-01     
5.000000e-01     5.000000e-01     5.000000e-01     -4.172929e-01     -5.000000e-01     
-5.000000e-01     -5.000000e-01     -5.000000e-01     5.000000e-01     5.000000e-01     
4.002185e-01     5.000000e-01     -5.000000e-01     -4.166559e-01     -5.000000e-01     
-4.147234e-01     -5.000000e-01     -5.000000e-01     5.000000e-01     5.000000e-01     
4.113143e-01     5.000000e-01     -4.168882e-01     -5.000000e-01     -3.377257e-01     
-3.394736e-01     -4.000000e-01     -3.000000e-01     -2.358569e-01     -2.336705e-01     
-2.000000e-01     -1.328526e-01     -1.355658e-01     -1.000000e-01     -4.186515e-01     
-5.000000e-01     -4.306907e-01     -5.000000e-01     4.118837e-01     5.000000e-01     
5.000000e-01     4.133445e-01     5.000000e-01     5.000000e-01     5.000000e-01     
5.000000e-01     4.154058e-01     1.385241e-01     2.000000e-01     1.332982e-01     
1.000000e-01     -5.000000e-01     -4.146039e-01     -5.000000e-01     -4.161818e-01     
-5.000000e-01     -5.000000e-01     2.327661e-01     2.398472e-01     3.000000e-01     
-5.000000e-01     -4.148621e-01     -5.000000e-01     5.000000e-01     3.394775e-01     
3.402928e-01     3.000000e-01     4.000000e-01     3.408169e-01     3.370237e-01     
4.000000e-01     -5.000000e-01     -5.000000e-01     -4.188956e-01     -5.000000e-01     
-4.181984e-01     0.000000e+00     -3.538671e-02     -3.199024e-02     5.250692e-02     
2.387814e-01     2.380280e-01     2.000000e-01     -5.000000e-01     5.000000e-01     
4.163841e-01     5.000000e-01     5.000000e-01     1.370487e-01     1.364753e-01     
1.000000e-01     -4.156489e-01     -5.000000e-01     -5.000000e-01     5.000000e-01     
4.312317e-01     5.000000e-01     5.000000e-01     4.126178e-01     5.000000e-01     
-3.345431e-02     0.000000e+00     -3.416514e-02     5.080411e-02     5.132827e-02     
-4.176242e-01     -5.000000e-01     -5.000000e-01     -5.000000e-01     -4.153699e-01     
-5.000000e-01     -5.000000e-01     5.000000e-01     5.000000e-01     4.147698e-01     
4.321533e-01     5.000000e-01     5.000000e-01     4.162748e-01     -1.000000e-01     
4.279073e-01     5.000000e-01     4.283888e-01     5.000000e-01     5.000000e-01     
-5.000000e-01     -5.000000e-01     -4.182065e-01     -4.304764e-01     -5.000000e-01     
5.000000e-01     5.000000e-01     -1.348476e-01     -1.342329e-01     -2.000000e-01     
4.921320e-02     4.153532e-01     5.000000e-01     -2.351197e-01     -2.350089e-01     
-3.000000e-01     -4.172851e-01     -5.000000e-01     -5.000000e-01     -3.389313e-01     
-3.385744e-01     -4.000000e-01     4.285649e-01     5.000000e-01     -5.000000e-01     
-4.301559e-01     -4.299545e-01     -5.000000e-01     -2.691570e-01     -2.872865e-01     
-2.533145e-01     -3.393881e-01     -3.333612e-01     -1.785461e-01     -2.840612e-01     
-2.461096e-01     -3.369169e-01     -3.266578e-01     -4.451597e-03     2.405180e-02     
-8.318273e-02     7.489395e-03     1.309113e-01     6.911759e-02     -2.623326e-01     
-2.232663e-01     -1.724573e-01     -1.636444e-01     -1.911011e-01     -2.461408e-01     
-1.635182e-01     -2.596206e-01     -2.208650e-01     -1.693040e-01     -3.958714e-01     
3.289274e-01     3.547036e-01     3.232997e-01     -3.949884e-01     -3.650669e-01     
3.894597e-01     3.898668e-01     3.302813e-01     3.563551e-01     4.128642e-01     
3.259199e-01     4.820785e-02     2.544020e-02     5.580392e-02     -6.244155e-02     
5.000000e-01     3.957228e-01     3.387404e-01     -4.523982e-02     -9.524623e-02     
-8.969532e-02     -1.508035e-01     2.353442e-02     5.272929e-02     5.137032e-02     
1.556951e-01     1.805055e-01     1.481582e-01     2.376631e-01     5.648026e-02     
-3.599188e-01     -1.171414e-01     -3.890695e-01     -3.278680e-01     -2.718085e-01     
-2.263306e-01     -3.294742e-01     -3.884739e-01     -3.318452e-01     -5.134342e-02     
-6.639593e-02     -3.024566e-01     -2.314059e-01     1.160623e-01     2.310521e-01     
2.822865e-01     2.855261e-01     -3.871211e-01     -1.703471e-01     -1.159911e-01     
2.821727e-01     2.877733e-01     2.842456e-01     -3.862956e-01     6.001601e-02     
1.095501e-01     1.133817e-01     1.552525e-01     2.887301e-01     3.268247e-01     
3.852755e-01     5.000000e-01     -6.876026e-02     -7.576147e-02     -6.578211e-02     
-7.782309e-02     -6.683582e-02     1.832712e-01     1.739836e-01     1.721953e-01     
1.849237e-01     1.763997e-01     1.072413e-01     1.095486e-01     2.371940e-01     
2.078329e-01     -2.970397e-01     -2.077479e-01     2.700310e-03     -5.633150e-02     
-1.092533e-01     -4.094274e-03     -6.195581e-02     7.421862e-03     1.151951e-01     
2.708136e-01     2.365064e-01     4.055642e-01     5.000000e-01     3.369475e-01     
5.000000e-01     5.000000e-01     4.081786e-01     5.000000e-01     4.221875e-01     
5.000000e-01     5.000000e-01     5.000000e-01     5.000000e-01     5.000000e-01     
4.055327e-01     5.000000e-01     4.087856e-01     5.000000e-01     5.000000e-01     
4.182232e-01     5.000000e-01     5.000000e-01     3.227309e-01     5.000000e-01     
4.141646e-01     5.000000e-01     5.000000e-01     5.000000e-01     4.011284e-01     
5.000000e-01     3.231408e-01     4.170601e-01     5.000000e-01     5.000000e-01     
4.047340e-01     4.135265e-01     5.000000e-01     4.102369e-01     5.000000e-01     
4.102142e-01     4.123743e-01     5.000000e-01     4.048878e-01     5.000000e-01     
4.055197e-01     5.000000e-01     5.000000e-01     4.008107e-01     4.018832e-01     
5.000000e-01     -5.000000e-01     -4.167469e-01     -5.000000e-01     -5.000000e-01     
-4.028995e-01     -5.000000e-01     -5.000000e-01     -4.098891e-01     -5.000000e-01     
-5.000000e-01     -4.238832e-01     -5.000000e-01     -5.000000e-01     -4.132821e-01     
-5.000000e-01     -5.000000e-01     -5.000000e-01     -5.000000e-01     -4.145036e-01     
-5.000000e-01     -5.000000e-01     -4.219029e-01     -5.000000e-01     -5.000000e-01     
-5.000000e-01     -4.074352e-01     -4.154012e-01     -3.309992e-01     -5.000000e-01     
-4.098718e-01     -5.000000e-01     -5.000000e-01     -4.108879e-01     -5.000000e-01     
-4.115795e-01     -3.274000e-01     -4.061212e-01     -5.000000e-01     -5.000000e-01     
-5.000000e-01     -4.039836e-01     -5.000000e-01     -4.084011e-01     -5.000000e-01     
-4.035043e-01     -5.000000e-01     -4.042089e-01     -4.003213e-01     -5.000000e-01     
-5.000000e-01     -3.970053e-01     -5.000000e-01     -3.104766e-01     -2.618563e-01     
1.355264e-01     7.468346e-02     4.390606e-02     1.054263e-01     1.431634e-01     
4.461796e-02     4.765546e-02     -6.365995e-03     -1.449067e-01     -1.810377e-01     
-2.414973e-01     -1.567090e-01     3.266989e-01     3.358306e-01     3.986201e-01     
-2.297387e-01     -2.213852e-01     -1.725605e-01     -1.139788e-01     -1.083810e-01     
-5.445517e-02     2.240261e-01     2.912886e-01     -1.177917e-01     2.397302e-01     
1.774972e-01     5.268583e-02     8.015574e-02     -4.619670e-02     -2.383166e-01     
-1.722127e-01     -1.388053e-01     1.711531e-01     2.347697e-01     -1.099696e-01     
-3.030324e-01     2.988119e-01     3.385251e-01     1.672159e-01     -1.867797e-02     
-2.490832e-01     -2.829525e-01     -3.295884e-01     -3.361127e-01     -2.636618e-01     
-3.335169e-01     -2.789418e-01     -2.396465e-01     6.226325e-02     3.541531e-02     
5.237629e-02     -8.393598e-03     1.440632e-01     -5.278798e-02     -7.042014e-02     
-7.955021e-02     -1.695197e-01     -2.636171e-01     -2.766669e-01     -3.329440e-01     
-2.334396e-01     -3.607857e-01     -2.165849e-01     -1.672319e-01     1.782696e-01     
2.381181e-01     1.526275e-01     2.245509e-01     2.701496e-01     3.282316e-01     
2.576664e-01     1.096215e-01     1.225379e-01     -1.189586e-01     -8.104138e-03     
-1.192238e-01     1.032071e-01     1.046175e-01     2.279223e-01     1.659094e-01     
2.319927e-01     -1.273732e-01     -1.208096e-01     -1.744448e-01     2.608820e-01     
1.057775e-01     1.645071e-01     4.316022e-01     5.000000e-01     -3.006659e-01     
4.175448e-01     2.616783e-01     2.292181e-01     -1.948771e-01     -4.135243e-01     
-3.076867e-01     -4.140831e-01     3.186511e-01     4.163511e-01     4.051028e-01     
-1.573658e-01     -1.587812e-01     1.047942e-01     3.710129e-02     9.888337e-02     
1.429776e-01     -2.898473e-01     -1.252840e-01     -1.369053e-01     -1.469433e-01     
-8.069215e-02     1.827779e-02     2.615752e-02     1.920898e-01     2.101569e-01     
3.466218e-01     3.180684e-01     3.957599e-01     4.179037e-01     3.244476e-01     
4.255954e-01     4.020358e-01     3.553289e-01     3.679946e-01     4.246380e-01     
4.226300e-01     4.138598e-01     3.942137e-01     4.114720e-01     4.068890e-01     
4.029161e-01     4.184704e-01     -3.953080e-01     -4.109369e-01     -5.000000e-01     
-4.298986e-01     -4.032024e-01     -3.892964e-01     -4.097718e-01     -4.249799e-01     
-4.017245e-01     -4.183076e-01     -4.002265e-01     -4.243209e-01     -5.000000e-01     
-4.001285e-01     -4.127798e-01     -4.308062e-01     -4.241828e-01     -2.891129e-01     
-4.787820e-03     4.137511e-01     5.000000e-01     -3.098123e-01     3.027324e-01     
3.860737e-01     2.048148e-01     2.392080e-01     -2.066505e-01     -1.016832e-01     
-2.162367e-02     -3.722498e-01     2.959851e-01     3.467533e-01     2.375299e-01     
-7.621675e-03     1.984652e-01     -1.945857e-01     -1.867729e-01     -1.038295e-02     
-1.980784e-01     2.044256e-01     -8.887055e-03     1.033214e-01     3.347354e-01     
-3.075439e-01     2.116672e-01     1.113949e-01     1.139438e-01     1.335088e-02     
1.541344e-02     6.457785e-02     -2.228784e-01     -5.510661e-02     3.655507e-01     
3.216224e-01     3.295829e-01     3.112636e-01     3.234153e-01     4.019531e-01     
4.139662e-01     2.813972e-01     -3.337644e-01     -4.233905e-01     -3.507507e-01     
-4.389718e-01     -5.000000e-01     -3.638362e-01     -3.715318e-01     -3.176117e-01     
-2.955734e-01     -2.042335e-01     -2.260029e-01     -3.394432e-01     -2.507894e-01     
-2.734785e-01     -2.457445e-01     -3.469664e-01     2.383350e-01     3.358248e-01     
3.041797e-01     3.182157e-01     1.265987e-01     -2.963745e-01     -3.155017e-01     
-5.458021e-02     2.280819e-01     -1.080759e-01     6.637131e-02     -9.786223e-02     
-9.604617e-02     -1.913940e-01     -2.066715e-01     -1.914807e-01     2.859603e-01     
3.012151e-01     1.666425e-01     -1.196046e-02     -5.069630e-02     2.226308e-01     
1.367728e-01     1.197060e-01     4.633019e-02     -1.229664e-01     -3.283915e-02     
3.692343e-02     2.526912e-02     -4.705125e-02     3.628053e-01     2.932253e-01     
2.938676e-01     2.737711e-01     2.699378e-01     3.128120e-01     3.517081e-01     
2.749316e-01     3.293132e-01     5.158073e-02     1.508936e-01     3.076187e-01     
3.297722e-01     3.438358e-01     3.250863e-01     2.975135e-01     -3.153887e-01     
-2.754262e-01     -3.773884e-01     -3.383362e-01     -2.065641e-01     -3.077736e-01     
-2.281132e-01     -3.924305e-01     -3.252928e-01     -3.200275e-01     -3.071629e-01     
-3.764987e-01     -3.179462e-01     -2.917544e-01     -1.704600e-01     -1.070667e-01     
5.197691e-02     -6.153132e-02     -1.155804e-01     -2.051896e-01     -1.887047e-01     
-3.175963e-01     -3.092529e-01     -8.937836e-02     -4.088278e-02     2.392823e-01     
2.295623e-01     4.125538e-01     3.165263e-01     2.484177e-01     2.294673e-01     
2.942431e-01     -2.891629e-01     -2.843860e-01     -2.865481e-01     3.275821e-01     
3.482882e-01     -1.757973e-01     -2.403147e-02     -9.755535e-02     -1.719767e-01     
-2.035081e-01     -7.906922e-04     -2.411437e-01     -3.458726e-02     5.027442e-02     
-9.070212e-02     4.256697e-03     -2.307170e-02     4.238931e-02     2.480827e-01     
1.874916e-01     2.955399e-01     -2.639549e-02     6.272434e-02     2.548939e-02     
1.135500e-01     -9.142106e-03     1.597689e-01     2.058578e-01     2.125020e-01     
3.782396e-02     -2.154933e-01     -3.705678e-02     -1.408985e-01     -1.236659e-01     
-5.901176e-02     -3.556295e-02     3.239175e-01     3.352205e-01     1.636962e-01     
3.252091e-01     2.874042e-01     1.916033e-01     2.169469e-01     2.822351e-01     
2.734857e-01     3.529183e-01     4.034381e-01     2.907968e-01     3.546533e-01     
3.034090e-01     -3.721965e-02     5.316022e-02     5.876071e-02     1.000127e-01     
2.345615e-01     9.500666e-02     1.458495e-01     2.937873e-01     3.578556e-01     
2.839712e-01     1.805921e-01     1.960636e-01     1.897683e-01     3.690869e-01     
-4.016415e-01     -3.196433e-01     -2.902955e-01     -3.212259e-01     -2.943064e-01     
-3.232240e-01     -3.271123e-01     -2.741064e-01     -3.218524e-01     -3.229198e-01     
-1.850756e-01     -3.223109e-01     -2.649112e-01     -3.422400e-01     -3.183128e-01     
-2.747160e-01     -2.652752e-01     -3.621987e-01     -4.055738e-01     -2.391649e-01     
-3.572651e-01     -2.788453e-01     -1.625679e-01     -2.938918e-01     -7.867744e-02     
-1.627495e-01     -9.009057e-02     -1.634167e-01     -1.926404e-01     5.585659e-02     
5.786111e-02     -1.157303e-03     1.444082e-01     -1.215376e-01     -1.863629e-01     
-2.333157e-01     -3.525105e-01     1.656706e-01     -2.833599e-01     -3.293514e-01     
-3.593588e-01     -4.120401e-01     -3.193928e-01     -3.454984e-01     -3.455042e-01     
-2.831383e-01     -3.348211e-01     -1.878436e-01     3.220858e-01     2.461435e-01     