title = " tecplot file for process Mesh " 
variables = "x",  "y", "z", "cell_type" 
zone N = 257 E = 512 DATAPACKING = BLOCK,  VARLOCATION = ([4]=CELLCENTERED), ZONETYPE=FETRIANGLE 
0.000000e+00     
3.512071e-02     0.000000e+00     5.000000e-02     0.000000e+00     3.504530e-02     
5.000000e-02     0.000000e+00     7.809667e-02     1.000000e-01     4.850221e-02     
0.000000e+00     7.828769e-02     1.000000e-01     4.826802e-02     0.000000e+00     
1.275237e-01     1.500000e-01     4.256697e-02     0.000000e+00     1.278855e-01     
1.500000e-01     4.224543e-02     0.000000e+00     4.241831e-02     0.000000e+00     
1.775394e-01     2.000000e-01     1.781263e-01     2.000000e-01     4.285516e-02     
0.000000e+00     2.277493e-01     2.500000e-01     4.326520e-02     0.000000e+00     
2.286347e-01     2.500000e-01     4.270475e-02     0.000000e+00     2.791842e-01     
3.000000e-01     4.371634e-02     0.000000e+00     2.778786e-01     3.000000e-01     
4.302612e-02     0.000000e+00     3.298715e-01     3.500000e-01     4.397830e-02     
0.000000e+00     3.279603e-01     3.500000e-01     4.312560e-02     0.000000e+00     
3.807726e-01     4.000000e-01     4.390039e-02     0.000000e+00     3.780940e-01     
4.000000e-01     4.269604e-02     0.000000e+00     4.082723e-02     0.000000e+00     
4.321054e-02     0.000000e+00     4.319438e-01     4.500000e-01     4.290599e-01     
4.500000e-01     4.103826e-02     0.000000e+00     4.825787e-01     4.843752e-01     
5.000000e-01     3.308939e-02     5.500000e-01     5.283147e-01     1.033148e-01     
8.168447e-02     8.475184e-02     8.491604e-02     8.566741e-02     8.615109e-02     
8.599716e-02     8.443399e-02     7.849405e-02     1.540885e-01     2.051809e-01     
2.555644e-01     3.057996e-01     3.556830e-01     4.050964e-01     4.533436e-01     
1.038743e-01     8.229673e-02     8.558760e-02     8.600872e-02     8.702593e-02     
8.777764e-02     8.799031e-02     8.737604e-02     8.517182e-02     1.550551e-01     
2.066438e-01     2.576900e-01     3.088828e-01     3.603052e-01     4.124548e-01     
4.663676e-01     5.380715e-01     4.958489e-01     1.284570e-01     1.296277e-01     
1.827028e-01     2.330869e-01     2.837797e-01     3.337692e-01     3.832987e-01     
4.317659e-01     1.845166e-01     2.356839e-01     2.873591e-01     3.387736e-01     
3.906594e-01     4.435761e-01     5.680531e-01     1.261198e-01     1.277903e-01     
1.289374e-01     1.294192e-01     1.290086e-01     1.274456e-01     1.276968e-01     
1.297893e-01     1.313265e-01     1.321428e-01     1.320522e-01     1.307897e-01     
1.656294e-01     1.636300e-01     4.774755e-01     5.234088e-01     2.132459e-01     
2.103139e-01     2.663165e-01     2.624642e-01     3.169265e-01     3.119632e-01     
3.681265e-01     3.617993e-01     4.200259e-01     4.118317e-01     1.280598e-01     
1.692048e-01     1.717906e-01     1.712962e-01     1.726296e-01     1.731112e-01     
1.732489e-01     1.744389e-01     1.762165e-01     1.768334e-01     1.765144e-01     
4.612672e-01     5.493897e-01     1.737134e-01     1.750963e-01     2.125438e-01     
2.469971e-01     2.899390e-01     3.392150e-01     3.898250e-01     2.157922e-01     
2.164303e-01     2.177527e-01     2.163482e-01     2.511934e-01     2.951014e-01     
3.452900e-01     3.963574e-01     2.203231e-01     2.213205e-01     2.222020e-01     
4.426752e-01     5.034044e-01     2.614481e-01     2.668279e-01     4.481147e-01     
2.216658e-01     2.189156e-01     2.202274e-01     2.583059e-01     2.613203e-01     
2.645231e-01     2.677125e-01     3.214492e-01     3.722445e-01     3.148335e-01     
3.648203e-01     2.949442e-01     3.020734e-01     3.121239e-01     3.035964e-01     
5.014941e-01     5.588447e-01     3.470621e-01     3.382358e-01     4.163409e-01     
2.684923e-01     2.635171e-01     2.651055e-01     4.757065e-01     4.236494e-01     
3.164986e-01     3.081648e-01     3.093086e-01     4.697922e-01     5.216942e-01     
2.669770e-01     3.880932e-01     4.516453e-01     3.982109e-01     3.143336e-01     
3.116635e-01     4.410134e-01     4.931935e-01     3.558399e-01     3.683146e-01     
4.280530e-01     3.523311e-01     3.555528e-01     4.125360e-01     3.905382e-01     
4.648011e-01     5.175348e-01     3.626588e-01     4.124573e-01     4.630026e-01     
5.126393e-01     3.587848e-01     4.353659e-01     5.422412e-01     4.872408e-01     
3.986179e-01     4.057670e-01     4.533701e-01     4.953409e-01     4.030521e-01     
5.447000e-01     5.105804e-01     4.474414e-01     4.990265e-01     4.510646e-01     
4.776945e-01     
0.000000e+00     
3.460306e-02     5.000000e-02     0.000000e+00     1.000000e+00     9.653978e-01     
1.000000e+00     9.500000e-01     9.591499e-01     1.000000e+00     7.995223e-02     
1.000000e-01     4.084723e-02     0.000000e+00     9.200420e-01     9.000000e-01     
9.570043e-01     1.000000e+00     1.308905e-01     1.500000e-01     4.299155e-02     
0.000000e+00     8.690802e-01     8.500000e-01     8.199933e-01     8.000000e-01     
9.557907e-01     1.000000e+00     4.418814e-02     0.000000e+00     1.799307e-01     
2.000000e-01     9.555302e-01     1.000000e+00     2.295773e-01     2.500000e-01     
4.439422e-02     0.000000e+00     7.702584e-01     7.500000e-01     4.427640e-02     
0.000000e+00     2.796173e-01     3.000000e-01     9.555187e-01     1.000000e+00     
7.200506e-01     7.000000e-01     4.400143e-02     0.000000e+00     3.300082e-01     
3.500000e-01     9.555384e-01     1.000000e+00     6.693786e-01     6.500000e-01     
4.359631e-02     0.000000e+00     3.807856e-01     4.000000e-01     9.554173e-01     
1.000000e+00     6.182826e-01     6.000000e-01     5.676443e-01     5.500000e-01     
4.319317e-01     4.500000e-01     4.275010e-02     0.000000e+00     9.547906e-01     
1.000000e+00     4.825803e-01     5.000000e-01     4.056283e-02     9.510482e-01     
1.000000e+00     5.250917e-01     1.000000e+00     9.651173e-01     9.160554e-01     
8.826597e-01     8.400161e-01     7.910909e-01     7.410913e-01     6.902130e-01     
6.382286e-01     5.842854e-01     5.252822e-01     9.118493e-01     9.112024e-01     
9.110454e-01     9.112501e-01     9.111319e-01     9.108354e-01     9.099121e-01     
8.393072e-02     1.173038e-01     1.598979e-01     2.087320e-01     2.585315e-01     
3.090038e-01     3.601737e-01     4.123173e-01     4.663205e-01     8.811860e-02     
8.870371e-02     8.867757e-02     8.808898e-02     8.749979e-02     8.646514e-02     
8.411553e-02     9.199157e-01     9.045406e-01     8.664056e-01     1.335427e-01     
8.674161e-01     8.660579e-01     8.672297e-01     8.670942e-01     8.666536e-01     
8.664424e-01     1.325236e-01     1.337333e-01     1.321810e-01     1.315513e-01     
1.307209e-01     1.290888e-01     8.737750e-01     8.131874e-01     7.633104e-01     
7.126410e-01     6.609250e-01     6.078781e-01     5.531581e-01     1.867117e-01     
2.364681e-01     2.868792e-01     3.380577e-01     3.901105e-01     4.433151e-01     
1.692948e-01     8.306418e-01     8.671792e-01     8.692126e-01     1.823610e-01     
8.175902e-01     1.758709e-01     8.238444e-01     1.754965e-01     8.235979e-01     
1.751274e-01     8.227927e-01     1.741863e-01     8.221272e-01     4.981015e-01     
7.866428e-01     2.132973e-01     7.363855e-01     6.850658e-01     6.327463e-01     
5.796719e-01     2.635376e-01     3.147101e-01     3.666726e-01     4.192329e-01     
8.230052e-01     8.203937e-01     5.261520e-01     4.725315e-01     7.618445e-01     
7.840273e-01     7.807004e-01     7.797191e-01     7.781046e-01     7.104273e-01     
6.581366e-01     6.059870e-01     2.383253e-01     2.160405e-01     2.191280e-01     
2.192834e-01     2.193436e-01     2.899720e-01     3.424596e-01     3.946995e-01     
7.777390e-01     8.307130e-01     7.370726e-01     2.634764e-01     2.181799e-01     
4.473711e-01     5.533941e-01     5.004129e-01     6.831898e-01     6.323493e-01     
3.181553e-01     3.697506e-01     2.620261e-01     2.644909e-01     7.383609e-01     
7.347833e-01     7.023747e-01     2.990344e-01     3.439668e-01     6.588338e-01     
7.812629e-01     7.645317e-01     3.087727e-01     6.929365e-01     7.325514e-01     
4.220576e-01     5.807235e-01     5.281119e-01     2.620680e-01     2.642659e-01     
3.955809e-01     6.089521e-01     5.561979e-01     7.317086e-01     7.269527e-01     
4.751379e-01     6.877857e-01     3.082556e-01     3.118982e-01     4.499113e-01     
5.034326e-01     6.860416e-01     6.824040e-01     6.405831e-01     3.641919e-01     
3.559073e-01     5.842705e-01     5.324049e-01     6.429600e-01     6.054063e-01     
6.379650e-01     6.334985e-01     4.247711e-01     4.061919e-01     3.950189e-01     
3.902586e-01     4.797882e-01     5.957828e-01     5.851244e-01     5.876560e-01     
5.609960e-01     4.587713e-01     4.428336e-01     4.289272e-01     5.110770e-01     
4.359297e-01     5.350755e-01     4.901646e-01     4.764498e-01     5.431305e-01     
5.116107e-01     
0.000000e+00     
0.000000e+00     0.000000e+00     0.000000e+00     0.000000e+00     0.000000e+00     
0.000000e+00     0.000000e+00     0.000000e+00     0.000000e+00     0.000000e+00     
0.000000e+00     0.000000e+00     0.000000e+00     0.000000e+00     0.000000e+00     
0.000000e+00     0.000000e+00     0.000000e+00     0.000000e+00     0.000000e+00     
0.000000e+00     0.000000e+00     0.000000e+00     0.000000e+00     0.000000e+00     
0.000000e+00     0.000000e+00     0.000000e+00     0.000000e+00     0.000000e+00     
0.000000e+00     0.000000e+00     0.000000e+00     0.000000e+00     0.000000e+00     
0.000000e+00     0.000000e+00     0.000000e+00     0.000000e+00     0.000000e+00     
0.000000e+00     0.000000e+00     0.000000e+00     0.000000e+00     0.000000e+00     
0.000000e+00     0.000000e+00     0.000000e+00     0.000000e+00     0.000000e+00     
0.000000e+00     0.000000e+00     0.000000e+00     0.000000e+00     0.000000e+00     
0.000000e+00     0.000000e+00     0.000000e+00     0.000000e+00     0.000000e+00     
0.000000e+00     0.000000e+00     0.000000e+00     0.000000e+00     0.000000e+00     
0.000000e+00     0.000000e+00     0.000000e+00     0.000000e+00     0.000000e+00     
0.000000e+00     0.000000e+00     0.000000e+00     0.000000e+00     0.000000e+00     
0.000000e+00     0.000000e+00     0.000000e+00     0.000000e+00     0.000000e+00     
0.000000e+00     0.000000e+00     0.000000e+00     0.000000e+00     0.000000e+00     
0.000000e+00     0.000000e+00     0.000000e+00     0.000000e+00     0.000000e+00     
0.000000e+00     0.000000e+00     0.000000e+00     0.000000e+00     0.000000e+00     
0.000000e+00     0.000000e+00     0.000000e+00     0.000000e+00     0.000000e+00     
0.000000e+00     0.000000e+00     0.000000e+00     0.000000e+00     0.000000e+00     
0.000000e+00     0.000000e+00     0.000000e+00     0.000000e+00     0.000000e+00     
0.000000e+00     0.000000e+00     0.000000e+00     0.000000e+00     0.000000e+00     
0.000000e+00     0.000000e+00     0.000000e+00     0.000000e+00     0.000000e+00     
0.000000e+00     0.000000e+00     0.000000e+00     0.000000e+00     0.000000e+00     
0.000000e+00     0.000000e+00     0.000000e+00     0.000000e+00     0.000000e+00     
0.000000e+00     0.000000e+00     0.000000e+00     0.000000e+00     0.000000e+00     
0.000000e+00     0.000000e+00     0.000000e+00     0.000000e+00     0.000000e+00     
0.000000e+00     0.000000e+00     0.000000e+00     0.000000e+00     0.000000e+00     
0.000000e+00     0.000000e+00     0.000000e+00     0.000000e+00     0.000000e+00     
0.000000e+00     0.000000e+00     0.000000e+00     0.000000e+00     0.000000e+00     
0.000000e+00     0.000000e+00     0.000000e+00     0.000000e+00     0.000000e+00     
0.000000e+00     0.000000e+00     0.000000e+00     0.000000e+00     0.000000e+00     
0.000000e+00     0.000000e+00     0.000000e+00     0.000000e+00     0.000000e+00     
0.000000e+00     0.000000e+00     0.000000e+00     0.000000e+00     0.000000e+00     
0.000000e+00     0.000000e+00     0.000000e+00     0.000000e+00     0.000000e+00     
0.000000e+00     0.000000e+00     0.000000e+00     0.000000e+00     0.000000e+00     
0.000000e+00     0.000000e+00     0.000000e+00     0.000000e+00     0.000000e+00     
0.000000e+00     0.000000e+00     0.000000e+00     0.000000e+00     0.000000e+00     
0.000000e+00     0.000000e+00     0.000000e+00     0.000000e+00     0.000000e+00     
0.000000e+00     0.000000e+00     0.000000e+00     0.000000e+00     0.000000e+00     
0.000000e+00     0.000000e+00     0.000000e+00     0.000000e+00     0.000000e+00     
0.000000e+00     0.000000e+00     0.000000e+00     0.000000e+00     0.000000e+00     
0.000000e+00     0.000000e+00     0.000000e+00     0.000000e+00     0.000000e+00     
0.000000e+00     0.000000e+00     0.000000e+00     0.000000e+00     0.000000e+00     
0.000000e+00     0.000000e+00     0.000000e+00     0.000000e+00     0.000000e+00     
0.000000e+00     0.000000e+00     0.000000e+00     0.000000e+00     0.000000e+00     
0.000000e+00     0.000000e+00     0.000000e+00     0.000000e+00     0.000000e+00     
0.000000e+00     0.000000e+00     0.000000e+00     0.000000e+00     0.000000e+00     
0.000000e+00     0.000000e+00     0.000000e+00     0.000000e+00     0.000000e+00     
0.000000e+00     0.000000e+00     0.000000e+00     0.000000e+00     0.000000e+00     
0.000000e+00     

0      
0      0      0      0      0      0      0      0      0      0      
0      0      0      0      0      0      0      0      0      0      
0      0      0      0      0      0      0      0      0      0      
0      0      0      0      0      0      0      0      0      0      
0      0      0      0      0      0      0      0      0      0      
0      0      0      0      0      0      0      0      0      0      
0      0      0      0      0      0      0      0      0      0      
0      0      0      0      0      0      0      0      0      0      
0      0      0      0      0      0      0      0      0      0      
0      0      0      0      0      0      0      0      0      0      
0      0      0      0      0      0      0      0      0      0      
0      0      0      0      0      0      0      0      0      0      
0      0      0      0      0      0      0      0      0      0      
0      0      0      0      0      0      0      0      0      0      
0      0      0      0      0      0      0      0      0      0      
0      0      0      0      0      0      0      0      0      0      
0      0      0      0      0      0      0      0      0      0      
0      0      0      0      0      0      0      0      0      0      
0      0      0      0      0      0      0      0      0      0      
0      0      0      0      0      0      0      0      0      0      
0      0      0      0      0      0      0      0      0      0      
0      0      0      0      0      0      0      0      0      0      
0      0      0      0      0      0      0      0      0      0      
0      0      0      0      0      0      0      0      0      0      
0      0      0      0      0      0      0      0      0      0      
0      0      0      0      0      0      0      0      0      0      
0      0      0      0      0      0      0      0      0      0      
0      0      0      0      0      0      0      0      0      0      
0      0      0      0      0      0      0      0      0      0      
0      0      0      0      0      0      0      0      0      0      
0      0      0      0      0      0      0      0      0      0      
0      0      0      0      0      0      0      0      0      0      
0      0      0      0      0      0      0      0      0      0      
0      0      0      0      0      0      0      0      0      0      
0      0      0      0      0      0      0      0      0      0      
0      0      0      0      0      0      0      0      0      0      
0      0      0      0      0      0      0      0      0      0      
0      0      0      0      0      0      0      0      0      0      
0      0      0      0      0      0      0      0      0      0      
0      0      0      0      0      0      0      0      0      0      
0      0      0      0      0      0      0      0      0      0      
0      0      0      0      0      0      0      0      0      0      
0      0      0      0      0      0      0      0      0      0      
0      0      0      0      0      0      0      0      0      0      
0      0      0      0      0      0      1      1      1      1      
1      1      1      1      1      1      1      1      1      1      
1      1      1      1      1      1      1      1      1      1      
1      1      1      1      1      1      1      1      1      1      
1      1      1      1      1      1      1      1      1      1      
1      1      1      1      1      1      1      1      1      1      
1      1      1      1      1      1      1      1      1      1      
1      

1      2      3      
2      1      4      
3      2      11      
2      4      13      
5      6      7      
6      5      8      
7      6      9      
6      8      15      
9      6      15      
7      9      10      
10      9      17      
11      2      13      
3      11      12      
12      11      19      
13      4      14      
13      14      21      
15      8      16      
15      16      23      
17      9      81      
10      17      18      
18      17      27      
19      11      98      
12      19      20      
20      19      31      
21      14      22      
13      21      97      
21      22      29      
23      16      24      
15      23      82      
23      24      25      
25      24      26      
23      25      83      
25      26      39      
27      17      90      
18      27      28      
28      27      33      
29      22      30      
21      29      106      
29      30      37      
31      19      99      
20      31      32      
32      31      35      
33      27      91      
28      33      34      
34      33      45      
35      31      100      
32      35      36      
36      35      43      
37      30      38      
29      37      107      
37      38      41      
39      26      40      
25      39      84      
39      40      47      
41      38      42      
37      41      108      
41      42      49      
43      35      101      
36      43      44      
44      43      51      
45      33      92      
34      45      46      
46      45      53      
47      40      48      
39      47      85      
47      48      55      
49      42      50      
41      49      109      
49      50      57      
51      43      102      
44      51      52      
52      51      59      
53      45      93      
46      53      54      
54      53      61      
55      48      56      
47      55      86      
55      56      63      
57      50      58      
49      57      110      
57      58      69      
59      51      103      
52      59      60      
60      59      67      
61      53      94      
54      61      62      
62      61      71      
63      56      64      
55      63      87      
63      64      65      
65      64      66      
63      65      88      
65      66      78      
67      59      104      
60      67      68      
68      67      73      
69      58      70      
57      69      111      
69      70      75      
71      61      95      
62      71      72      
72      71      76      
73      67      105      
68      73      74      
74      73      78      
76      71      96      
72      76      77      
77      76      80      
78      66      74      
65      78      89      
77      80      79      
78      73      89      
80      76      113      
9      15      81      
11      13      97      
17      81      90      
81      15      82      
82      23      83      
81      82      115      
83      25      84      
82      83      115      
84      39      85      
83      84      130      
85      47      86      
84      85      131      
86      55      87      
85      86      132      
87      63      88      
86      87      133      
88      65      89      
87      88      134      
88      89      135      
27      90      91      
90      81      115      
33      91      92      
91      90      117      
45      92      93      
92      91      118      
53      93      94      
93      92      119      
61      94      95      
94      93      120      
71      95      96      
95      94      121      
76      96      114      
96      95      122      
97      21      106      
11      97      98      
19      98      99      
98      97      116      
31      99      100      
99      98      116      
35      100      101      
100      99      136      
43      101      102      
101      100      137      
51      102      103      
102      101      138      
59      103      104      
103      102      139      
67      104      105      
104      103      140      
73      105      89      
105      104      141      
106      29      107      
97      106      116      
107      37      108      
106      107      123      
108      41      109      
107      108      124      
109      49      110      
108      109      125      
110      57      111      
109      110      126      
111      69      112      
110      111      127      
111      112      128      
89      105      156      
113      76      114      
114      96      144      
113      114      145      
90      115      117      
115      83      130      
116      106      123      
99      116      136      
91      117      118      
117      115      143      
92      118      119      
118      117      147      
93      119      120      
119      118      149      
94      120      121      
120      119      151      
95      121      122      
121      120      153      
96      122      144      
122      121      155      
123      107      124      
116      123      142      
124      108      125      
123      124      146      
125      109      126      
124      125      148      
126      110      127      
125      126      150      
127      111      128      
126      127      152      
127      128      154      
130      84      131      
115      130      143      
131      85      132      
130      131      157      
132      86      133      
131      132      159      
133      87      134      
132      133      160      
134      88      135      
133      134      161      
135      89      156      
134      135      162      
100      136      137      
136      116      142      
101      137      138      
137      136      158      
102      138      139      
138      137      163      
103      139      140      
139      138      164      
104      140      141      
140      139      165      
105      141      156      
141      140      166      
142      123      146      
136      142      158      
143      130      157      
117      143      147      
144      122      167      
114      144      145      
113      145      129      
129      145      168      
146      124      148      
142      146      158      
118      147      149      
147      143      157      
148      125      150      
146      148      180      
119      149      151      
149      147      172      
150      126      152      
148      150      181      
120      151      153      
151      149      173      
152      127      154      
150      152      182      
121      153      155      
153      151      174      
152      154      183      
122      155      167      
155      153      175      
135      156      169      
156      141      170      
157      131      159      
137      158      163      
159      132      160      
157      159      171      
160      133      161      
159      160      176      
161      134      162      
160      161      177      
162      135      169      
161      162      178      
138      163      164      
163      158      179      
139      164      165      
164      163      184      
140      165      166      
165      164      185      
141      166      170      
166      165      186      
145      144      188      
158      146      179      
147      157      171      
144      167      188      
167      155      187      
168      145      188      
169      156      170      
162      169      193      
169      170      194      
170      166      192      
171      159      176      
147      171      172      
149      172      173      
172      171      189      
151      173      174      
173      172      189      
153      174      175      
174      173      201      
155      175      187      
175      174      202      
176      160      177      
171      176      189      
177      161      178      
176      177      195      
178      162      193      
177      178      196      
163      179      184      
179      146      180      
180      148      181      
179      180      190      
181      150      182      
180      181      190      
182      152      183      
181      182      199      
183      154      191      
182      183      200      
164      184      185      
184      179      190      
165      185      186      
185      184      197      
166      186      192      
186      185      198      
187      175      211      
167      187      207      
168      188      207      
188      167      207      
189      176      195      
173      189      201      
184      190      197      
190      181      199      
183      191      216      
170      192      194      
192      186      212      
178      193      213      
193      169      194      
193      194      214      
195      177      196      
189      195      203      
196      178      213      
195      196      206      
185      197      198      
197      190      204      
186      198      212      
198      197      205      
199      182      200      
190      199      204      
200      183      216      
199      200      209      
174      201      202      
201      189      203      
175      202      211      
202      201      210      
194      192      222      
201      203      210      
203      195      206      
197      204      205      
204      199      209      
198      205      217      
205      204      209      
206      196      218      
203      206      210      
207      187      220      
168      207      208      
208      207      221      
209      200      225      
202      210      223      
211      202      223      
187      211      220      
212      198      217      
192      212      222      
213      193      214      
196      213      218      
214      194      222      
213      214      219      
216      191      215      
216      215      224      
200      216      225      
205      209      231      
210      206      230      
217      205      231      
212      217      226      
206      218      230      
218      213      219      
219      214      227      
218      219      233      
207      220      221      
220      211      228      
221      220      229      
214      222      227      
222      212      226      
223      210      230      
211      223      228      
216      224      225      
225      224      232      
209      225      231      
226      217      239      
222      226      227      
219      227      234      
220      228      229      
228      223      235      
229      228      237      
223      230      235      
230      218      233      
217      231      239      
231      225      232      
231      232      240      
233      219      234      
230      233      236      
227      226      243      
234      227      243      
233      234      247      
228      235      237      
235      230      236      
236      233      247      
235      236      244      
229      237      238      
237      235      244      
238      237      246      
239      231      240      
226      239      243      
239      240      248      
243      239      248      
234      243      251      
244      236      247      
237      244      246      
238      246      245      
245      246      253      
247      234      251      
248      240      249      
243      248      251      
241      249      240      
249      241      250      
248      249      254      
242      250      241      
250      242      252      
249      250      255      
246      244      256      
244      247      256      
251      248      254      
247      251      256      
250      252      255      
253      246      256      
254      249      255      
251      254      256      
254      255      257      
256      254      257      
253      256      257      
257      255      253      
7      5       7      
10      7       10      
18      10       18      
28      18       28      
34      28       34      
46      34       46      
54      46       54      
62      54       62      
72      62       72      
77      72       77      
79      77       79      
3      1       3      
1      4       1      
5      8       5      
12      3       12      
4      14       4      
8      16       8      
20      12       20      
14      22       14      
16      24       16      
24      26       24      
22      30       22      
32      20       32      
36      32       36      
30      38       30      
26      40       26      
38      42       38      
44      36       44      
40      48       40      
42      50       42      
52      44       52      
48      56       48      
50      58       50      
60      52       60      