Title = " tecplot file for 2D Cavity problem " 
variables = "x", "y", "z", "velX", "cellCentroidY" 
Zone T = "nmesh0" N = 256 E = 448 DATAPACKING = BLOCK, VARLOCATION = ([4-5]=CELLCENTERED), ZONETYPE=FETRIANGLE
1.0    0.96533594013    0.95    1.0    1.0    
0.9649024825    1.0    0.95    0.95902875974    1.0    
0.95155322615    1.0    0.92177911433    0.9    0.9198999378    
0.9    0.9568226881    1.0    0.95749200678    1.0    
0.87226824393    0.85    0.86890821098    0.85    0.9572484407    
1.0    0.82219618312    0.8    0.81980127549    0.8    
0.95558186406    1.0    0.95536229089    1.0    0.95696372984    
1.0    0.77199475402    0.75    0.77006876794    0.75    
0.95550274946    1.0    0.71989229368    0.7    0.72195093401    
0.7    0.95675970876    1.0    0.95582992292    1.0    
0.66926876975    0.65    0.95688164945    1.0    0.67197150816    
0.65    0.95630076466    1.0    0.61821894362    0.6    
0.95755698627    1.0    0.62193949298    0.6    0.56761657638    
0.55    0.95959377415    1.0    0.57236329358    0.55    
0.95721112701    1.0    0.42905991008    0.45    0.95945200039    
1.0    0.48437517704    0.5    0.96732120107    0.52831468118    
0.91575790296    0.88235203294    0.83962702723    0.79064013388    0.74064045872    
0.68983004436    0.63794983483    0.58411329204    0.91144287106    0.91077919899    
0.91080437106    0.9114706769    0.9121834638    0.9133527983    0.91582097533    
0.40509640655    0.45334364094    0.89627773688    0.91782156923    0.91455680685    
0.91426123614    0.91359975372    0.91349616662    0.91421551885    0.91629100111    
0.92245638347    0.84526518899    0.79400903185    0.74361496428    0.69356203423    
0.64373910321    0.59286509504    0.53807151633    0.49584885187    0.86586765897    
0.87057486204    0.81583309813    0.76505094353    0.71431985769    0.6649602505    
0.61677039554    0.86668702612    0.86538024806    0.86699630616    0.86779659152    
0.86883619653    0.87066230274    0.43176589433    0.56805308825    0.87249847607    
0.87066024693    0.86985479406    0.87026057149    0.87173328327    0.8740188815    
0.81246222176    0.7624554153    0.71177776831    0.66019440423    0.60734657527    
0.55285353766    0.8297452205    0.83452260875    0.47747547855    0.52340883677    
0.78675489866    0.81633000309    0.73380082327    0.8228028954    0.82336769571    
0.68391918853    0.82405903565    0.63574362176    0.82526906853    0.59322958088    
0.82830603574    0.78540567067    0.87359766195    0.82608162102    0.82569617528    
0.82706195114    0.8285477429    0.73484408151    0.68351264827    0.63146848902    
0.57877398036    0.46126715131    0.54938968204    0.82718982092    0.52573377836    
0.8287191441    0.75975032768    0.78203134701    0.7790086395    0.77938967945    
0.77980818143    0.70760517349    0.65538816944    0.6038501004    0.78320791419    
0.74788912304    0.70295502959    0.65116510576    0.60011687015    0.77998716233    
0.78188085254    0.78401043104    0.50340439664    0.73359270097    0.73121963088    
0.55208966062    0.78112107869    0.67757037868    0.62747862208    0.73540856209    
0.73883927731    0.78450765774    0.67312094014    0.73567302248    0.7344703029    
0.61434151013    0.6960322427    0.69489576235    0.78300081971    0.64568595357    
0.68591149471    0.50149406194    0.55884472011    0.68950251933    0.64785825573    
0.74192742165    0.57739139714    0.527302952    0.734916006    0.73665249203    
0.70398345607    0.60001209999    0.73926987841    0.55543546495    0.52169417532    
0.56796530247    0.59668872216    0.50411884888    0.68849932245    0.62751779272    
0.6592260919    0.49319345201    0.54466024892    0.69702479356    0.69240131119    
0.68983364822    0.64161186627    0.5911167146    0.48190607441    0.53403453919    
0.57249702702    0.60240505316    0.51753479009    0.64271299661    0.595851633    
0.64504433432    0.64867709448    0.46300260783    0.51263934275    0.55641526584    
0.54224118495    0.48724078267    0.59647001142    0.60152238429    0.45337011442    
0.49534090515    0.5618446652    0.54470004714    0.51058041495    0.4990264969    
0.55169427507    
0.0    0.035160310391    0.0    0.05    1.0    
0.96538400526    0.95    1.0    0.078366971877    0.1    
0.92000601205    0.9    0.95913369295    1.0    0.048580569352    
0.0    0.12799717029    0.15    0.86903291872    0.85    
0.95701048188    1.0    0.042635634437    0.0    0.81995137328    
0.8    0.95590742877    1.0    0.042868879836    0.0    
0.17826679782    0.2    0.2287979588    0.25    0.77024877003    
0.75    0.95593396956    1.0    0.04314350572    0.0    
0.27936708455    0.3    0.043349154299    0.0    0.9564812879    
1.0    0.72009911714    0.7    0.33007320368    0.35    
0.043233752164    0.0    0.66949183304    0.65    0.95732543115    
1.0    0.3809899675    0.4    0.042552465016    0.0    
0.61844504415    0.6    0.95812133767    1.0    0.040486587209    
0.0    0.56783265302    0.55    0.9593733532    1.0    
0.43216748305    0.45    0.95479055731    1.0    0.48279214809    
0.5    0.95104823121    1.0    0.52524828361    0.96511729799    
0.10402920562    0.082430829088    0.085678074287    0.085925316644    0.086566986629    
0.0866850808    0.085978048808    0.083867418262    0.15527496326    0.20692351838    
0.25802183198    0.3092657811    0.36073654189    0.41291898701    0.46683219811    
0.91083540554    0.90991212793    0.91600608837    0.88258600317    0.83991377622    
0.79098435563    0.74104570727    0.69028227669    0.63842124284    0.58457816469    
0.52565479765    0.91187468859    0.91153407609    0.91214185366    0.91379185358    
0.91566984216    0.91696323584    0.91991572278    0.90454059621    0.12982587381    
0.86629682455    0.86742745263    0.86664992287    0.86930622211    0.87200935229    
0.87531587826    0.1848297749    0.23609447727    0.28787324165    0.33939310233    
0.39137615969    0.44434380015    0.86644243609    0.8737749857    0.81296847359    
0.7630594134    0.71247305247    0.6609412431    0.60810077634    0.5536017523    
0.1277631763    0.12950358558    0.13030639258    0.1299617757    0.1284987352    
0.12610367492    0.16585259531    0.83043935308    0.86717917706    0.8692125815    
0.81742414419    0.21360161042    0.8246807162    0.26687620039    0.31766553643    
0.82685905417    0.36907390823    0.83137907541    0.42114215162    0.83855543059    
0.78622661388    0.17182513466    0.49881568546    0.7357980191    0.68457114667    
0.63254850053    0.57985069778    0.17392028402    0.17442665089    0.1732248109    
0.17167019475    0.82300523501    0.82039372635    0.47386267257    0.17121780781    
0.52684794462    0.2164769035    0.25168726381    0.29584252349    0.34637890122    
0.39783995313    0.2197242833    0.21836628012    0.21643092704    0.76097110423    
0.78364947962    0.78146635348    0.78429570521    0.79467169092    0.70901105062    
0.65682439085    0.60527804061    0.83071296987    0.26735984044    0.73541287677    
0.21553519007    0.44980791583    0.26442256197    0.26198678121    0.67929764752    
0.62923533916    0.55356110881    0.73824985597    0.32254887541    0.37402140601    
0.73897982284    0.30338240521    0.69786106312    0.50182839444    0.31505163276    
0.64719166416    0.7812628525    0.76453172488    0.34901881741    0.68999466862    
0.57923162396    0.25868364144    0.26012190396    0.42601281582    0.47810321985    
0.60227481054    0.2982976903    0.52939615087    0.3031953365    0.72695267365    
0.71857375242    0.68200187547    0.30489372621    0.40145142052    0.63665376955    
0.59431737623    0.68240404586    0.67830493031    0.55808573722    0.50752877441    
0.4547391069    0.37416303061    0.34712025081    0.34987065498    0.34619273164    
0.63154185281    0.57897227315    0.63349850238    0.43038869951    0.40589474501    
0.48528529386    0.5407051787    0.3950189306    0.39025859801    0.38538349804    
0.58512439681    0.58765603511    0.46129907557    0.51739590637    0.44283363007    
0.42892718502    0.5425106701    0.43592965585    0.53507553622    0.47644982963    
0.49379788272    
0.0    0.0    0.0    0.0    0.0    
0.0    0.0    0.0    0.0    0.0    
0.0    0.0    0.0    0.0    0.0    
0.0    0.0    0.0    0.0    0.0    
0.0    0.0    0.0    0.0    0.0    
0.0    0.0    0.0    0.0    0.0    
0.0    0.0    0.0    0.0    0.0    
0.0    0.0    0.0    0.0    0.0    
0.0    0.0    0.0    0.0    0.0    
0.0    0.0    0.0    0.0    0.0    
0.0    0.0    0.0    0.0    0.0    
0.0    0.0    0.0    0.0    0.0    
0.0    0.0    0.0    0.0    0.0    
0.0    0.0    0.0    0.0    0.0    
0.0    0.0    0.0    0.0    0.0    
0.0    0.0    0.0    0.0    0.0    
0.0    0.0    0.0    0.0    0.0    
0.0    0.0    0.0    0.0    0.0    
0.0    0.0    0.0    0.0    0.0    
0.0    0.0    0.0    0.0    0.0    
0.0    0.0    0.0    0.0    0.0    
0.0    0.0    0.0    0.0    0.0    
0.0    0.0    0.0    0.0    0.0    
0.0    0.0    0.0    0.0    0.0    
0.0    0.0    0.0    0.0    0.0    
0.0    0.0    0.0    0.0    0.0    
0.0    0.0    0.0    0.0    0.0    
0.0    0.0    0.0    0.0    0.0    
0.0    0.0    0.0    0.0    0.0    
0.0    0.0    0.0    0.0    0.0    
0.0    0.0    0.0    0.0    0.0    
0.0    0.0    0.0    0.0    0.0    
0.0    0.0    0.0    0.0    0.0    
0.0    0.0    0.0    0.0    0.0    
0.0    0.0    0.0    0.0    0.0    
0.0    0.0    0.0    0.0    0.0    
0.0    0.0    0.0    0.0    0.0    
0.0    0.0    0.0    0.0    0.0    
0.0    0.0    0.0    0.0    0.0    
0.0    0.0    0.0    0.0    0.0    
0.0    0.0    0.0    0.0    0.0    
0.0    0.0    0.0    0.0    0.0    
0.0    0.0    0.0    0.0    0.0    
0.0    0.0    0.0    0.0    0.0    
0.0    0.0    0.0    0.0    0.0    
0.0    0.0    0.0    0.0    0.0    
0.0    0.0    0.0    0.0    0.0    
0.0    0.0    0.0    0.0    0.0    
0.0    0.0    0.0    0.0    0.0    
0.0    0.0    0.0    0.0    0.0    
0.0    0.0    0.0    0.0    0.0    
0.0    
0.147458364841    0.14035133294    0.740001673159    0.663118628116    100.888329071    
301.475890012    114.191591413    291.510964341    0.472269701156    1.29774018191    
1.35869741686    201.629141821    55.303114718    67.6400820682    354.61190196    
331.345545422    0.599124085424    1.43889024721    0.852757861132    2.65515103122    
2.10926237223    119.452091095    27.6888067597    42.8364101015    370.14270575    
270.290728882    350.854860052    2.85727674754    0.812292751293    1.93218587354    
83.5801043665    19.0478081646    31.8932217131    377.413647479    303.133255234    
361.417127184    3.90252813134    1.0819356316    2.45377317554    1.26990808915    
4.23377749777    2.90502963579    1.69462098738    5.85255323211    3.75304391112    
62.8630452427    14.4449746418    24.9047874439    381.891113459    323.217805107    
367.959867899    4.93031897064    1.33483627552    2.91958063328    2.14127441184    
7.56790475764    4.68023621059    5.86814376542    1.55397504876    3.30171564367    
384.853592397    336.000584344    372.199484737    49.3439525434    11.4099024334    
19.9163426603    2.61949343244    9.40252426796    5.70606022935    6.62548571215    
1.71430655741    3.56673513827    39.4575121884    9.13221545811    16.0593018574    
386.907875048    344.761161701    375.025191647    3.13119418682    11.4254852554    
6.82179189661    7.12964062702    1.7865328514    3.64261339154    31.6960074297    
7.26309432619    12.7929511301    388.320604167    350.803835257    377.113165893    
7.28508656824    1.70345529469    25.2268600815    5.51041431067    9.44082717193    
389.5697426    354.874932048    379.915270235    3.62828107266    13.6142671588    
7.88917304772    3.92442255399    15.7904270553    8.16019789413    374.796767248    
351.089209007    386.423489059    378.689406176    19.3087029502    3.38245311109    
391.659445956    359.146772407    17.1977134116    355.645508058    210.15854668    
2.47826967049    4.35433712129    3.23206615909    4.23438146521    5.46263733158    
5.60731963234    6.07251612819    6.8590545212    7.90397050549    7.94012019982    
9.68130583709    8.77850506778    11.2094989922    9.29185959541    12.362307222    
13.0393848413    6.3283969552    6.03542683486    8.39201298388    8.77851690706    
10.6190365803    11.7300749135    13.0783668481    14.7741335371    15.8360516647    
18.1775922143    18.8808044311    21.9923803896    21.8778711201    26.2262312006    
339.568195612    337.84047438    315.952110267    266.806889043    171.73436912    
113.160144407    186.333850966    86.716289984    152.931308245    67.557633842    
116.461032913    53.9815959216    92.1067654152    43.6065253654    74.0157315272    
35.1699500189    59.7851575544    27.5025782313    48.0816996073    37.6882939225    
296.016306072    222.471840382    314.821554021    260.040586113    327.074268672    
283.065111013    335.461038155    299.558944388    340.962971021    310.959013813    
345.042848998    319.012967974    323.233407813    30.8085558729    342.242310213    
316.064067074    319.034341041    8.56878226689    8.10281748788    226.668760258    
148.249665922    258.81393134    200.852441633    279.061134471    228.247777759    
293.821352346    253.481839822    303.947444592    269.780000548    309.750771173    
281.927162125    11.7688303212    10.3748092224    15.1671726758    14.7185798535    
18.8703596553    18.7412573422    23.0575246437    23.3027778233    27.8258349513    
28.4864239716    33.2456405464    34.4125429507    307.001599135    312.845510107    
290.122054605    114.458202841    170.520729544    92.0190330041    137.118766909    
74.7426004512    111.545362465    60.8813766676    90.9805651251    49.3879925526    
74.1299443333    39.3981507061    60.3684308446    10.2262965692    10.1223866933    
12.1468536455    12.8909984911    13.7288514989    15.3825570916    14.8748498578    
17.3997915089    15.5027638514    18.8013485455    19.618628905    13.9708730933    
12.9173267738    159.625481956    206.229871114    284.944551685    306.922481731    
285.921406803    229.982385091    181.415852572    18.4389027146    15.3503460526    
251.718088093    210.06681975    23.1068927448    21.5048137663    28.4371693924    
26.8552596868    266.158593985    229.582673279    34.551056816    33.0578832556    
277.199477017    244.491222539    41.5740549363    40.2287828604    278.715939412    
257.906194119    132.205297453    15.837361614    49.6040674689    41.2626565612    
108.450711014    150.167361427    89.0788905407    124.170290993    73.1318029578    
101.976410966    60.0394885308    83.9706380236    18.3619287526    18.9657166224    
20.2922184081    22.1703399637    21.5795851268    24.4386225494    22.2545837054    
25.9317766549    289.099753441    18.7736748247    174.728407924    278.692342596    
258.275341883    278.409732381    49.7510034167    48.4867144062    26.8446336673    
69.6224170589    22.6141174328    21.4051718877    25.9547148423    26.2818671572    
32.0354479042    28.9255989681    39.1800848952    35.7822968647    47.3812096326    
43.8612396073    25.576170217    26.5927615843    27.5955901796    30.0164033112    
28.8903145143    32.2952537235    143.47883296    188.148516624    213.218615355    
177.076895132    228.238601365    192.040061788    242.740060648    208.676502029    
222.474943172    118.913306174    158.838593349    98.1941546787    130.651280752    
81.4465956752    108.181100475    58.1046371267    243.214253213    256.722390953    
257.524672754    30.889880172    33.708077733    149.768354832    190.473299397    
33.633210468    53.1489025009    56.8151118655    33.6934907544    35.1783730794    
35.5439133379    39.4521390513    123.427916857    158.040286975    103.165363959    
132.608260399    67.9012763863    90.1708369748    206.129520546    175.145348572    
41.8131543619    36.5451445774    50.9174597587    45.396549946    221.805755664    
187.432002274    42.8036611492    40.3541274219    146.440571045    173.810703486    
63.7765109387    75.9612660875    42.6234695406    44.9323756752    124.113763049    
156.190127264    241.67350002    222.037149618    208.419693573    52.2771677614    
181.784787324    86.6640294117    109.864193126    36.7718496571    40.3308031696    
42.0831855011    55.4953914119    61.3264996372    51.0274438848    151.200047393    
66.9663586052    73.1597119508    104.954508076    125.845125433    43.7061860659    
49.1344384067    79.938211052    94.2681853597    45.4838971311    49.5474697008    
207.657744821    189.922371169    191.239229093    161.992832604    181.381909581    
51.2200184715    63.4988525881    55.6208006476    156.576271859    135.757553704    
112.740326995    130.796023022    185.934461316    169.301089273    165.996142785    
90.3169482974    76.2491866285    97.0246978831    81.573228634    67.795906996    
63.2943841533    53.1403547725    61.1641142935    53.7390852854    55.0175194883    
61.3021348308    59.5915610941    109.115031027    139.709816005    160.002902296    
116.738416063    135.292119185    76.8998428414    66.2895830612    63.2329611621    
75.2483436754    92.3451145969    80.8007695543    97.091128584    63.8171051687    
65.3215928818    71.8493203794    145.425052106    110.107994075    72.0979870992    
71.4350465357    123.553813056    139.830895039    125.813742617    77.7589587348    
90.8778315697    94.3483683608    75.4147325064    76.1878166876    84.4569850055    
113.107274604    119.290944723    103.949596187    87.0978669156    83.7603136296    
107.729938373    89.6015067053    100.903313788    
0.01119822617    0.0271632574007    0.0283179167082    0.0555055841631    0.97293575685    
0.989009545398    0.943651585818    0.974706062208    0.0758081724254    0.0540848730322    
0.102558476203    0.947685042806    0.923644279669    0.896345756178    0.986565886922    
0.971952255656    0.0166828366915    0.0302770030014    0.125748694514    0.103230850802    
0.152433882484    0.891435211434    0.873520772673    0.845860961223    0.98569063052    
0.944130550938    0.97098381177    0.057539209692    0.0141837524338    0.0284622921696    
0.843355261487    0.823745038228    0.796305729023    0.985230146199    0.941498507355    
0.970670724839    0.0571081492185    0.0142733331211    0.028660564302    0.175833494453    
0.15359019813    0.202652027004    0.225972992934    0.204379127512    0.253036012889    
0.794092653159    0.77381361146    0.74636379278    0.985240413417    0.941041298689    
0.970852370139    0.0573107861355    0.0143855846566    0.0288322803906    0.27611697017    
0.255093504483    0.303504351644    0.0576870392791    0.0144724967008    0.0288842053086    
0.985468889654    0.941446745449    0.971263740463    0.744157021882    0.723771662669    
0.696096168108    0.326291861348    0.305888982112    0.354112307636    0.057736135932    
0.0144292854677    0.0286674644651    0.693664693482    0.673621043172    0.645496550564    
0.985820255085    0.942534488537    0.971739667969    0.37651564996    0.35686725146    
0.40488778343    0.0571934622128    0.0141556439797    0.0278071832962    0.642554949463    
0.623375049926    0.594942624852    0.986149712756    0.943798294165    0.972371733475    
0.0555989494658    0.013310549846    0.590884427244    0.573286461272    0.547950270045    
0.986666688895    0.944892178959    0.974705959102    0.426789856307    0.408214311666    
0.455501730939    0.476871019464    0.459957327765    0.502458155871    0.968497161479    
0.938958502445    0.983115857483    0.972093832342    0.540064497569    0.525048713053    
0.98897082674    0.947597275459    0.510746451578    0.944339481926    0.931196566645    
0.077067459946    0.129560068005    0.0771774599422    0.0698859579059    0.10676781471    
0.0714346072495    0.100155168974    0.0718878175368    0.0997542865467    0.0722460331027    
0.100663770963    0.0720871837795    0.101167004865    0.0710744689225    0.100782524885    
0.0992207842347    0.180441410251    0.129393052315    0.23154549506    0.181980883571    
0.282523994154    0.233399057192    0.333725200405    0.284747777587    0.385317027291    
0.336143659894    0.437883001189    0.388028986789    0.492892169161    0.441124525651    
0.925404798455    0.922573402738    0.895547467374    0.928155837793    0.90711174099    
0.863144564612    0.887642505578    0.816566045568    0.862926519409    0.767024497595    
0.814854833919    0.716754166983    0.765322656756    0.665652743739    0.714876234022    
0.613273480248    0.663464507181    0.558258409876    0.610540979871    0.554317904788    
0.926425835135    0.89779806926    0.926584967985    0.896947453662    0.927498851472    
0.896630040806    0.92889624336    0.898365906033    0.930085762224    0.90050945381    
0.931650473347    0.902890642579    0.903804376403    0.497319286326    0.926359275727    
0.893701029738    0.897716492347    0.156775083469    0.11467907625    0.881678046042    
0.8398401361    0.881915881882    0.85541391154    0.882734362913    0.849992929311    
0.885084136106    0.853557441828    0.887687819647    0.855931566224    0.888696659791    
0.859493257256    0.209665022502    0.159117171099    0.260878307066    0.211221917349    
0.312490453601    0.263298264435    0.364166159684    0.314691499841    0.416534432059    
0.36637221788    0.47024302865    0.418795316648    0.881488139884    0.888605431801    
0.863015659707    0.788617192143    0.837541909591    0.7385224582    0.787699253426    
0.687613934728    0.737328872897    0.635563775473    0.68614587304    0.581893659214    
0.633935521086    0.526037443243    0.580445795644    0.114458304271    0.140586579411    
0.115502981365    0.143009518272    0.115738390793    0.144585820747    0.114994832732    
0.144872534612    0.113101256752    0.143756911529    0.141860238723    0.189410905257    
0.155052973711    0.809112928396    0.838084657973    0.85179341732    0.880070662296    
0.853268698764    0.836197991644    0.811304243919    0.238742720291    0.184400750328    
0.840344959873    0.808991002886    0.291128973691    0.243198505054    0.342330669093    
0.2932075612    0.843532665252    0.810868983772    0.394099968386    0.344170418626    
0.84862445767    0.813827805989    0.446588488606    0.395876398656    0.844080193814    
0.820995848042    0.761361667078    0.158467435276    0.526393147593    0.472343764203    
0.710725371046    0.761162138823    0.659242977502    0.709911254177    0.606769583223    
0.658031022976    0.553424297496    0.605868128186    0.159598171173    0.187380503173    
0.159294760923    0.189449409455    0.157929864217    0.188633610459    0.156379307208    
0.186974074234    0.855874620864    0.201074596146    0.788260474084    0.840571829368    
0.817244227912    0.840116715242    0.499861386064    0.448212816349    0.185991144353    
0.553388209016    0.203484668638    0.22637679062    0.272115388583    0.245722163174    
0.320214595763    0.271715199596    0.371320694551    0.321496416041    0.423060295828    
0.37262225256    0.204217966399    0.234855910552    0.202710826351    0.234201108429    
0.201254436601    0.232260638993    0.734957997235    0.788364781329    0.796884063169    
0.758732751864    0.797522770594    0.766041479586    0.803316836104    0.76800707345    
0.772049335555    0.683465086808    0.735329969782    0.631576279288    0.681869988285    
0.579562431061    0.630447208669    0.500828841618    0.793676574237    0.809793082495    
0.810450049897    0.250695402797    0.295011299416    0.70806104649    0.751261161284    
0.230044412138    0.424470809283    0.475192961785    0.248128803959    0.27772753598    
0.245670724295    0.281313986969    0.655166391964    0.705057170916    0.604718155272    
0.652040013938    0.527373864313    0.579338239311    0.75348021576    0.724568964351    
0.347897405219    0.296899630746    0.399439511152    0.348385272321    0.765247519911    
0.722589132734    0.325693251764    0.294621099976    0.673608622641    0.708835889059    
0.476528411803    0.528226852282    0.291858716399    0.322583305457    0.627144679478    
0.677611223741    0.788807840082    0.758098006151    0.741401744472    0.375003722936    
0.704452769245    0.553932543558    0.60357873774    0.24474319551    0.272574991794    
0.274046158876    0.400414598539    0.451367992    0.345920502318    0.657750528803    
0.452862729742    0.503076289698    0.579441709612    0.615344344105    0.286482411565    
0.321162598602    0.504901232691    0.555456287497    0.289440192896    0.317106497544    
0.737039603439    0.713373284337    0.707731562356    0.669158510707    0.692462112731    
0.317931099253    0.427481311715    0.374886966693    0.650070592779    0.626454815015    
0.584495959531    0.603003407431    0.696049205701    0.664565942914    0.663656168893    
0.531611857252    0.480192546782    0.535197070893    0.482364566967    0.428767904553    
0.401997085533    0.344955586107    0.375600984302    0.332609917062    0.333804720896    
0.361896717298    0.35884575264    0.56450754699    0.61507775187    0.647624881498    
0.571345690562    0.598264987959    0.45691204821    0.403228248332    0.378575398844    
0.432767104439    0.511413149119    0.458870001357    0.514315501352    0.373676476029    
0.378369859023    0.40431629425    0.616731221211    0.546424120492    0.410276187376    
0.404924097108    0.569590532866    0.602054725769    0.568948900765    0.434254522183    
0.488003959038    0.490804987601    0.418604098363    0.42195686796    0.450339979347    
0.547134253077    0.554215505735    0.517243695052    0.463491616553    0.447667191243    
0.523488545069    0.468261060245    0.50207833053    
1     2     3     
2     1     4     
3     2     15     
2     4     9     
5     6     7     
6     5     8     
7     6     11     
6     8     13     
9     4     10     
2     9     15     
9     10     17     
11     6     13     
7     11     12     
12     11     19     
13     8     14     
13     14     21     
3     15     16     
16     15     23     
17     10     18     
9     17     81     
17     18     31     
19     11     99     
12     19     20     
20     19     25     
21     14     22     
13     21     98     
21     22     27     
23     15     82     
16     23     24     
24     23     29     
25     19     100     
20     25     26     
26     25     35     
27     22     28     
21     27     107     
27     28     37     
29     23     83     
24     29     30     
30     29     39     
31     18     32     
17     31     89     
31     32     33     
33     32     34     
31     33     90     
33     34     41     
35     25     101     
26     35     36     
36     35     47     
37     28     38     
27     37     108     
37     38     45     
39     29     84     
30     39     40     
40     39     43     
41     34     42     
33     41     91     
41     42     49     
43     39     85     
40     43     44     
44     43     51     
45     38     46     
37     45     109     
45     46     55     
47     35     102     
36     47     48     
48     47     53     
49     42     50     
41     49     92     
49     50     57     
51     43     86     
44     51     52     
52     51     59     
53     47     103     
48     53     54     
54     53     61     
55     46     56     
45     55     110     
55     56     63     
57     50     58     
49     57     93     
57     58     71     
59     51     87     
52     59     60     
60     59     65     
61     53     104     
54     61     62     
62     61     67     
63     56     64     
55     63     111     
63     64     69     
65     59     88     
60     65     66     
67     61     105     
62     67     68     
68     67     79     
69     64     70     
63     69     112     
69     70     80     
71     58     72     
57     71     94     
71     72     75     
75     72     76     
71     75     95     
75     76     79     
73     77     74     
77     73     97     
74     77     78     
78     77     80     
79     67     106     
68     79     76     
80     70     78     
69     80     113     
75     79     106     
80     77     113     
11     13     98     
15     9     81     
81     17     89     
15     81     82     
23     82     83     
82     81     115     
29     83     84     
83     82     115     
39     84     85     
84     83     136     
43     85     86     
85     84     137     
51     86     87     
86     85     138     
59     87     88     
87     86     139     
88     87     140     
89     31     90     
81     89     115     
90     33     91     
89     90     122     
91     41     92     
90     91     123     
92     49     93     
91     92     124     
93     57     94     
92     93     125     
94     71     95     
93     94     126     
95     75     106     
94     95     127     
97     73     96     
77     97     114     
97     96     128     
98     21     107     
11     98     99     
19     99     100     
99     98     116     
25     100     101     
100     99     116     
35     101     102     
101     100     130     
47     102     103     
102     101     131     
53     103     104     
103     102     132     
61     104     105     
104     103     133     
67     105     106     
105     104     134     
106     105     135     
107     27     108     
98     107     116     
108     37     109     
107     108     117     
109     45     110     
108     109     118     
110     55     111     
109     110     119     
111     63     112     
110     111     120     
112     69     113     
111     112     121     
112     113     129     
95     106     158     
113     77     114     
114     97     144     
113     114     145     
115     89     122     
83     115     136     
116     107     117     