Title = " tecplot out file" 
variables = "x", "y", "z", "velX", "velY", "velZ","density","pressure","viscosity","temperature", "collisionFrequency",
Zone T = "nmesh0" N = 121 E = 100 DATAPACKING = BLOCK, VARLOCATION = ([4-11]=CELLCENTERED),  ZONETYPE=FEQUADRILATERAL 
0.0    
0.0    
0.1    
0.1    
0.0    

0.1    
0.0    
0.1    
0.0    
0.1    

0.0    
0.1    
0.0    
0.1    
0.0    

0.1    
0.0    
0.1    
0.0    
0.1    

0.0    
0.1    
0.2    
0.2    
0.2    

0.2    
0.2    
0.2    
0.2    
0.2    

0.2    
0.2    
0.2    
0.3    
0.3    

0.3    
0.3    
0.3    
0.3    
0.3    

0.3    
0.3    
0.3    
0.3    
0.4    

0.4    
0.4    
0.4    
0.4    
0.4    

0.4    
0.4    
0.4    
0.4    
0.4    

0.5    
0.5    
0.5    
0.5    
0.5    

0.5    
0.5    
0.5    
0.5    
0.5    

0.5    
0.6    
0.6    
0.6    
0.6    

0.6    
0.6    
0.6    
0.6    
0.6    

0.6    
0.6    
0.7    
0.7    
0.7    

0.7    
0.7    
0.7    
0.7    
0.7    

0.7    
0.7    
0.7    
0.8    
0.8    

0.8    
0.8    
0.8    
0.8    
0.8    

0.8    
0.8    
0.8    
0.8    
0.9    

0.9    
0.9    
0.9    
0.9    
0.9    

0.9    
0.9    
0.9    
0.9    
0.9    

1.0    
1.0    
1.0    
1.0    
1.0    

1.0    
1.0    
1.0    
1.0    
1.0    

1.0    
1.0    
0.9    
1.0    
0.9    
0.8    

0.8    
0.7    
0.7    
0.6    
0.6    

0.5    
0.5    
0.4    
0.4    
0.3    

0.3    
0.2    
0.2    
0.1    
0.1    

0.0    
0.0    
1.0    
0.9    
0.8    

0.7    
0.6    
0.5    
0.4    
0.3    

0.2    
0.1    
0.0    
1.0    
0.9    

0.8    
0.7    
0.6    
0.5    
0.4    

0.3    
0.2    
0.1    
0.0    
1.0    

0.9    
0.8    
0.7    
0.6    
0.5    

0.4    
0.3    
0.2    
0.1    
0.0    

1.0    
0.9    
0.8    
0.7    
0.6    

0.5    
0.4    
0.3    
0.2    
0.1    

0.0    
1.0    
0.9    
0.8    
0.7    

0.6    
0.5    
0.4    
0.3    
0.2    

0.1    
0.0    
1.0    
0.9    
0.8    

0.7    
0.6    
0.5    
0.4    
0.3    

0.2    
0.1    
0.0    
1.0    
0.9    

0.8    
0.7    
0.6    
0.5    
0.4    

0.3    
0.2    
0.1    
0.0    
1.0    

0.9    
0.8    
0.7    
0.6    
0.5    

0.4    
0.3    
0.2    
0.1    
0.0    

0.9    
1.0    
0.8    
0.7    
0.6    

0.5    
0.4    
0.3    
0.2    
0.1    

0.0    
0.0    0.0    0.0    0.0    0.0    
0.0    0.0    0.0    0.0    0.0    
0.0    0.0    0.0    0.0    0.0    
0.0    0.0    0.0    0.0    0.0    
0.0    0.0    0.0    0.0    0.0    
0.0    0.0    0.0    0.0    0.0    
0.0    0.0    0.0    0.0    0.0    
0.0    0.0    0.0    0.0    0.0    
0.0    0.0    0.0    0.0    0.0    
0.0    0.0    0.0    0.0    0.0    
0.0    0.0    0.0    0.0    0.0    
0.0    0.0    0.0    0.0    0.0    
0.0    0.0    0.0    0.0    0.0    
0.0    0.0    0.0    0.0    0.0    
0.0    0.0    0.0    0.0    0.0    
0.0    0.0    0.0    0.0    0.0    
0.0    0.0    0.0    0.0    0.0    
0.0    0.0    0.0    0.0    0.0    
0.0    0.0    0.0    0.0    0.0    
0.0    0.0    0.0    0.0    0.0    
0.0    0.0    0.0    0.0    0.0    
0.0    0.0    0.0    0.0    0.0    
0.0    0.0    0.0    0.0    0.0    
0.0    0.0    0.0    0.0    0.0    
0.0    
0.051880453392    0.106617627301    0.106658204109    0.106658238572    0.106658238606    
0.106658238606    0.106658238572    0.106658204109    0.106617627301    0.051880453392    
0.000111122938774    0.000230538785893    0.00023071586764    0.000230716108014    0.000230716108338    
0.000230716108339    0.000230716108014    0.00023071586764    0.000230538785894    0.000111122938775    
1.60582924073e-07    3.32368031137e-07    3.32676034445e-07    3.32676517859e-07    3.32676518626e-07    
3.32676519401e-07    3.32676519223e-07    3.32676033792e-07    3.3236803118e-07    1.60582925461e-07    
2.17287741779e-10    4.48244790973e-10    4.48735436333e-10    4.48735795267e-10    4.48736281881e-10    
4.4873615461e-10    4.48736620451e-10    4.48734839192e-10    4.48245961077e-10    2.17287077467e-10    
2.9493585208e-13    6.06475160997e-13    6.08979226872e-13    6.07408017176e-13    6.08668781998e-13    
6.08097990904e-13    6.09306459485e-13    6.07729001073e-13    6.08410974574e-13    2.95424105141e-13    
-2.95464626635e-13    -6.08347081331e-13    -6.07605447882e-13    -6.09221386086e-13    -6.07969922056e-13    
-6.08673752528e-13    -6.07593011461e-13    -6.08962949884e-13    -6.06534326081e-13    -2.95031127022e-13    
-2.17287027425e-10    -4.4824583943e-10    -4.48734951111e-10    -4.4873655852e-10    -4.48736029584e-10    
-4.48736419624e-10    -4.48735842408e-10    -4.48735426204e-10    -4.48244679757e-10    -2.1728781588e-10    
-1.60582925381e-07    -3.32368031328e-07    -3.32676033642e-07    -3.32676519025e-07    -3.32676519287e-07    
-3.32676518627e-07    -3.3267651791e-07    -3.32676034473e-07    -3.32368031047e-07    -1.60582924111e-07    
-0.000111122938775    -0.000230538785894    -0.00023071586764    -0.000230716108014    -0.000230716108339    
-0.000230716108338    -0.000230716108014    -0.00023071586764    -0.000230538785892    -0.000111122938774    
-0.051880453392    -0.106617627301    -0.106658204109    -0.106658238572    -0.106658238606    
-0.106658238606    -0.106658238572    -0.106658204109    -0.106617627301    -0.051880453392    

-0.0511546642678    -0.000110948295626    -1.60452102528e-07    -2.17171794679e-10    -2.95130874806e-13    
2.95130986228e-13    2.17171823118e-10    1.60452102567e-07    0.000110948295626    0.0511546642678    
-0.106617596428    -0.000230538784529    -3.32368028826e-07    -4.48245343865e-10    -6.07563844434e-13    
6.07595222857e-13    4.48245381056e-10    3.32368028832e-07    0.000230538784529    0.106617596428    
-0.106658204091    -0.00023071586764    -3.32676034163e-07    -4.48735300851e-10    -6.0834371405e-13    
6.08371902364e-13    4.48735298848e-10    3.32676034244e-07    0.00023071586764    0.106658204091    
-0.106658238572    -0.000230716108013    -3.32676518646e-07    -4.48736128415e-10    -6.08329573746e-13    
6.08340923606e-13    4.4873626166e-10    3.32676518688e-07    0.000230716108013    0.106658238572    
-0.106658238606    -0.000230716108338    -3.32676519445e-07    -4.48736202297e-10    -6.08355684977e-13    
6.08405848701e-13    4.4873622934e-10    3.32676519494e-07    0.000230716108338    0.106658238606    
-0.106658238606    -0.000230716108338    -3.32676519414e-07    -4.48736225454e-10    -6.08365930121e-13    
6.08349148326e-13    4.48736248182e-10    3.32676519488e-07    0.000230716108338    0.106658238606    
-0.106658238572    -0.000230716108013    -3.32676518645e-07    -4.48736150577e-10    -6.08300797971e-13    
6.08336411146e-13    4.48736267809e-10    3.32676518681e-07    0.000230716108013    0.106658238572    
-0.106658204091    -0.00023071586764    -3.32676034165e-07    -4.48735302781e-10    -6.08352776565e-13    
6.08380511069e-13    4.48735308737e-10    3.32676034194e-07    0.00023071586764    0.106658204091    
-0.106617596428    -0.000230538784529    -3.3236802881e-07    -4.48245333386e-10    -6.07542659534e-13    
6.07593571611e-13    4.4824541683e-10    3.32368028864e-07    0.000230538784529    0.106617596428    
-0.0511546642678    -0.000110948295626    -1.60452102485e-07    -2.17171814673e-10    -2.95106566988e-13    
2.95196196618e-13    2.17171824332e-10    1.60452102694e-07    0.000110948295626    0.0511546642678    

2.50690326928e-17    1.712080797e-17    2.72800937549e-17    2.98632426477e-17    1.58201050611e-17    
1.95618533693e-17    9.02386524553e-18    2.45071330927e-17    7.94864729182e-18    3.34429702205e-17    
1.44670041263e-17    2.30065624504e-17    2.77854858228e-17    2.1167800949e-17    1.99366252779e-17    
5.4554368681e-17    2.74859561858e-17    2.12470513447e-17    9.19350651787e-18    7.38944262462e-18    
1.46515208675e-17    2.91010646594e-17    1.73934756536e-17    2.2330031496e-17    2.58102010898e-17    
2.71162597169e-17    2.11715585907e-17    2.33318151398e-17    2.65639174476e-17    2.78510908193e-17    
2.47915518494e-17    1.7499106312e-17    3.10606081589e-17    2.79485865441e-17    2.65941067483e-17    
1.38928058834e-17    2.23771667292e-17    1.48789110372e-17    3.23742169356e-17    1.96349374313e-17    
3.02479619952e-17    1.15011610983e-17    2.93201491411e-17    2.17288620092e-17    4.13912520077e-17    
1.45319305317e-17    1.38942194903e-17    3.39682378931e-17    2.7730939842e-17    3.49067812619e-17    
4.38343556546e-17    2.62317002461e-17    4.09145126785e-17    2.54014857557e-17    3.00322830445e-17    
1.60588005479e-17    2.82255670802e-17    1.56287793798e-17    1.94639497182e-17    2.41725879969e-17    
3.25065210807e-17    3.48227406749e-17    2.27023994957e-17    3.06422991995e-17    2.43490750182e-17    
2.65350843492e-17    2.1799359516e-17    2.97495930538e-17    1.21464599868e-17    1.04011418269e-17    
2.33329051401e-17    1.65454340329e-17    1.51189821371e-17    3.69384099112e-17    4.07018484669e-17    
1.20227447846e-17    2.72507114778e-17    1.44408789422e-17    1.27687791361e-17    1.22970177824e-17    
3.99253834766e-17    1.31814999753e-17    2.86067742294e-17    2.03083408638e-17    1.30103302795e-17    
2.64043543572e-17    1.25022172834e-17    4.32392043534e-17    2.92367923897e-17    1.92121258448e-17    
1.79619856019e-17    1.84147336514e-17    2.62650225949e-17    2.42927671203e-17    2.26006794637e-17    
3.75636716384e-17    1.58861047705e-17    5.93634849609e-17    1.64545566301e-17    3.8010813774e-17    

0.989794629747    0.987010847788    0.986909805847    0.986909649935    0.986909649736    
0.986909649736    0.986909649935    0.986909805847    0.987010847788    0.989794629747    
0.98701112839    1.00020680215    1.00010337749    1.00010321492    1.00010321471    
1.00010321471    1.00010321492    1.00010337749    1.00020680215    0.98701112839    
0.986909806009    1.00010337749    0.99999987047    0.999999707764    0.999999707555    
0.999999707555    0.999999707764    0.99999987047    1.00010337749    0.986909806009    
0.986909649935    1.00010321492    0.999999707764    0.999999545057    0.999999544849    
0.999999544849    0.999999545057    0.999999707764    1.00010321492    0.986909649935    
0.986909649736    1.00010321471    0.999999707555    0.999999544849    0.99999954464    
0.99999954464    0.999999544849    0.999999707555    1.00010321471    0.986909649736    
0.986909649736    1.00010321471    0.999999707555    0.999999544849    0.99999954464    
0.99999954464    0.999999544849    0.999999707555    1.00010321471    0.986909649736    
0.986909649935    1.00010321492    0.999999707764    0.999999545057    0.999999544849    
0.999999544849    0.999999545057    0.999999707764    1.00010321492    0.986909649935    
0.986909806009    1.00010337749    0.99999987047    0.999999707764    0.999999707555    
0.999999707555    0.999999707764    0.99999987047    1.00010337749    0.986909806009    
0.98701112839    1.00020680215    1.00010337749    1.00010321492    1.00010321471    
1.00010321471    1.00010321492    1.00010337749    1.00020680215    0.98701112839    
0.989794629747    0.987010847788    0.986909805847    0.986909649935    0.986909649736    
0.986909649736    0.986909649935    0.986909805847    0.987010847788    0.989794629747    

1.74878437941    1.49773901262    1.49732777591    1.49732723175    1.49732723105    
1.49732723105    1.49732723175    1.49732777591    1.49773901262    1.74878437941    
1.4977396664    1.0012732854    1.00064109099    1.00064029513    1.0006402941    
1.0006402941    1.00064029513    1.00064109099    1.0012732854    1.4977396664    
1.49732777634    1.00064109099    1.00000843471    1.00000763813    1.0000076371    
1.0000076371    1.00000763813    1.00000843471    1.00064109099    1.49732777634    
1.49732723175    1.00064029513    1.00000763813    1.00000684155    1.00000684052    
1.00000684052    1.00000684155    1.00000763813    1.00064029513    1.49732723175    
1.49732723105    1.0006402941    1.0000076371    1.00000684052    1.00000683948    
1.00000683948    1.00000684052    1.0000076371    1.0006402941    1.49732723105    
1.49732723105    1.0006402941    1.0000076371    1.00000684052    1.00000683948    
1.00000683948    1.00000684052    1.0000076371    1.0006402941    1.49732723105    
1.49732723175    1.00064029513    1.00000763813    1.00000684155    1.00000684052    
1.00000684052    1.00000684155    1.00000763813    1.00064029513    1.49732723175    
1.49732777634    1.00064109099    1.00000843471    1.00000763813    1.0000076371    
1.0000076371    1.00000763813    1.00000843471    1.00064109099    1.49732777634    
1.4977396664    1.0012732854    1.00064109099    1.00064029513    1.0006402941    
1.0006402941    1.00064029513    1.00064109099    1.0012732854    1.4977396664    
1.74878437941    1.49773901262    1.49732777591    1.49732723175    1.49732723105    
1.49732723105    1.49732723175    1.49732777591    1.49773901262    1.74878437941    

3.56829483718e-07    3.15455713299e-07    3.15411707677e-07    3.1541165519e-07    3.15411655122e-07    
3.15411655122e-07    3.1541165519e-07    3.15411707677e-07    3.15455713299e-07    3.56829483718e-07    
3.15455752193e-07    2.25221979183e-07    2.25125643789e-07    2.25125528398e-07    2.25125528247e-07    
2.25125528247e-07    2.25125528398e-07    2.25125643789e-07    2.25221979183e-07    3.15455752193e-07    
3.15411707709e-07    2.25125643789e-07    2.25029209621e-07    2.25029094084e-07    2.25029093933e-07    
2.25029093933e-07    2.25029094084e-07    2.25029209621e-07    2.25125643789e-07    3.15411707709e-07    
3.1541165519e-07    2.25125528398e-07    2.25029094084e-07    2.25028978546e-07    2.25028978395e-07    
2.25028978395e-07    2.25028978546e-07    2.25029094084e-07    2.25125528398e-07    3.1541165519e-07    
3.15411655122e-07    2.25125528247e-07    2.25029093933e-07    2.25028978395e-07    2.25028978244e-07    
2.25028978244e-07    2.25028978395e-07    2.25029093933e-07    2.25125528247e-07    3.15411655122e-07    
3.15411655122e-07    2.25125528247e-07    2.25029093933e-07    2.25028978395e-07    2.25028978244e-07    
2.25028978244e-07    2.25028978395e-07    2.25029093933e-07    2.25125528247e-07    3.15411655122e-07    
3.1541165519e-07    2.25125528398e-07    2.25029094084e-07    2.25028978546e-07    2.25028978395e-07    
2.25028978395e-07    2.25028978546e-07    2.25029094084e-07    2.25125528398e-07    3.1541165519e-07    
3.15411707709e-07    2.25125643789e-07    2.25029209621e-07    2.25029094084e-07    2.25029093933e-07    
2.25029093933e-07    2.25029094084e-07    2.25029209621e-07    2.25125643789e-07    3.15411707709e-07    
3.15455752193e-07    2.25221979183e-07    2.25125643789e-07    2.25125528398e-07    2.25125528247e-07    
2.25125528247e-07    2.25125528398e-07    2.25125643789e-07    2.25221979183e-07    3.15455752193e-07    
3.56829483718e-07    3.15455713299e-07    3.15411707677e-07    3.1541165519e-07    3.15411655122e-07    
3.15411655122e-07    3.1541165519e-07    3.15411707677e-07    3.15455713299e-07    3.56829483718e-07    

1.76681538458    1.51744939377    1.51718806221    1.51718775052    1.51718775011    
1.51718775011    1.51718775052    1.51718806221    1.51744939377    1.76681538458    
1.51744962475    1.00106626274    1.00053765792    1.00053702479    1.00053702396    
1.00053702396    1.00053702479    1.00053765792    1.00106626274    1.51744962475    
1.5171880624    1.00053765792    1.00000856424    1.00000793037    1.00000792954    
1.00000792954    1.00000793037    1.00000856424    1.00053765792    1.5171880624    
1.51718775052    1.00053702479    1.00000793037    1.0000072965    1.00000729567    
1.00000729567    1.0000072965    1.00000793037    1.00053702479    1.51718775052    
1.51718775011    1.00053702396    1.00000792954    1.00000729567    1.00000729484    
1.00000729484    1.00000729567    1.00000792954    1.00053702396    1.51718775011    
1.51718775011    1.00053702396    1.00000792954    1.00000729567    1.00000729484    
1.00000729484    1.00000729567    1.00000792954    1.00053702396    1.51718775011    
1.51718775052    1.00053702479    1.00000793037    1.0000072965    1.00000729567    
1.00000729567    1.0000072965    1.00000793037    1.00053702479    1.51718775052    
1.5171880624    1.00053765792    1.00000856424    1.00000793037    1.00000792954    
1.00000792954    1.00000793037    1.00000856424    1.00053765792    1.5171880624    
1.51744962475    1.00106626274    1.00053765792    1.00053702479    1.00053702396    
1.00053702396    1.00053702479    1.00053765792    1.00106626274    1.51744962475    
1.76681538458    1.51744939377    1.51718806221    1.51718775052    1.51718775011    
1.51718775011    1.51718775052    1.51718806221    1.51744939377    1.76681538458    

1367.00417413    1324.31729797    1324.13839337    1324.13813249    1324.13813216    
1324.13813216    1324.13813249    1324.13839337    1324.31729797    1367.00417413    
1324.31771276    1240.04134462    1239.78869573    1239.78834514    1239.78834469    
1239.78834469    1239.78834514    1239.78869573    1240.04134462    1324.31771276    
1324.13839361    1239.78869573    1239.53580212    1239.53545116    1239.53545071    
1239.53545071    1239.53545116    1239.53580212    1239.78869573    1324.13839361    
1324.13813249    1239.78834514    1239.53545116    1239.5351002    1239.53509974    
1239.53509974    1239.5351002    1239.53545116    1239.78834514    1324.13813249    
1324.13813216    1239.78834469    1239.53545071    1239.53509974    1239.53509929    
1239.53509929    1239.53509974    1239.53545071    1239.78834469    1324.13813216    
1324.13813216    1239.78834469    1239.53545071    1239.53509974    1239.53509929    
1239.53509929    1239.53509974    1239.53545071    1239.78834469    1324.13813216    
1324.13813249    1239.78834514    1239.53545116    1239.5351002    1239.53509974    
1239.53509974    1239.5351002    1239.53545116    1239.78834514    1324.13813249    
1324.13839361    1239.78869573    1239.53580212    1239.53545116    1239.53545071    
1239.53545071    1239.53545116    1239.53580212    1239.78869573    1324.13839361    
1324.31771276    1240.04134462    1239.78869573    1239.78834514    1239.78834469    
1239.78834469    1239.78834514    1239.78869573    1240.04134462    1324.31771276    
1367.00417413    1324.31729797    1324.13839337    1324.13813249    1324.13813216    
1324.13813216    1324.13813249    1324.13839337    1324.31729797    1367.00417413    

2     4     3     1     4     2     5     6     6     5     7     8     8     7     9     10     10     9     11     12     12     11     13     14     14     13     15     16     16     15     17     18     18     17     19     20     20     19     21     22     3     4     24     23     4     6     25     24     6     8     26     25     8     10     27     26     10     12     28     27     12     14     29     28     14     16     30     29     16     18     31     30     18     20     32     31     20     22     33     32     23     24     35     34     24     25     36     35     25     26     37     36     26     27     38     37     27     28     39     38     28     29     40     39     29     30     41     40     30     31     42     41     31     32     43     42     32     33     44     43     34     35     46     45     35     36     47     46     36     37     48     47     37     38     49     48     38     39     50     49     39     40     51     50     40     41     52     51     41     42     53     52     42     43     54     53     43     44     55     54     45     46     57     56     46     47     58     57     47     48     59     58     48     49     60     59     49     50     61     60     50     51     62     61     51     52     63     62     52     53     64     63     53     54     65     64     54     55     66     65     56     57     68     67     57     58     69     68     58     59     70     69     59     60     71     70     60     61     72     71     61     62     73     72     62     63     74     73     63     64     75     74     64     65     76     75     65     66     77     76     67     68     79     78     68     69     80     79     69     70     81     80     70     71     82     81     71     72     83     82     72     73     84     83     73     74     85     84     74     75     86     85     75     76     87     86     76     77     88     87     78     79     90     89     79     80     91     90     80     81     92     91     81     82     93     92     82     83     94     93     83     84     95     94     84     85     96     95     85     86     97     96     86     87     98     97     87     88     99     98     89     90     101     100     90     91     102     101     91     92     103     102     92     93     104     103     93     94     105     104     94     95     106     105     95     96     107     106     96     97     108     107     97     98     109     108     98     99     110     109     100     101     111     112     101     102     113     111     102     103     114     113     103     104     115     114     104     105     116     115     105     106     117     116     106     107     118     117     107     108     119     118     108     109     120     119     109     110     121     120     

