Title = " tecplot out file" 
variables = "x", "y", "z", "velX", "velY", "velZ","density","pressure","viscosity","temperature", "collisionFrequency",
Zone T = "nmesh0" N = 121 E = 100 DATAPACKING = BLOCK, VARLOCATION = ([4-11]=CELLCENTERED),  ZONETYPE=FEQUADRILATERAL 
0.0    
0.0    
0.1    
0.1    
0.0    

0.1    
0.0    
0.1    
0.0    
0.1    

0.0    
0.1    
0.0    
0.1    
0.0    

0.1    
0.0    
0.1    
0.0    
0.1    

0.0    
0.1    
0.2    
0.2    
0.2    

0.2    
0.2    
0.2    
0.2    
0.2    

0.2    
0.2    
0.2    
0.3    
0.3    

0.3    
0.3    
0.3    
0.3    
0.3    

0.3    
0.3    
0.3    
0.3    
0.4    

0.4    
0.4    
0.4    
0.4    
0.4    

0.4    
0.4    
0.4    
0.4    
0.4    

0.5    
0.5    
0.5    
0.5    
0.5    

0.5    
0.5    
0.5    
0.5    
0.5    

0.5    
0.6    
0.6    
0.6    
0.6    

0.6    
0.6    
0.6    
0.6    
0.6    

0.6    
0.6    
0.7    
0.7    
0.7    

0.7    
0.7    
0.7    
0.7    
0.7    

0.7    
0.7    
0.7    
0.8    
0.8    

0.8    
0.8    
0.8    
0.8    
0.8    

0.8    
0.8    
0.8    
0.8    
0.9    

0.9    
0.9    
0.9    
0.9    
0.9    

0.9    
0.9    
0.9    
0.9    
0.9    

1.0    
1.0    
1.0    
1.0    
1.0    

1.0    
1.0    
1.0    
1.0    
1.0    

1.0    
1.0    
0.9    
1.0    
0.9    
0.8    

0.8    
0.7    
0.7    
0.6    
0.6    

0.5    
0.5    
0.4    
0.4    
0.3    

0.3    
0.2    
0.2    
0.1    
0.1    

0.0    
0.0    
1.0    
0.9    
0.8    

0.7    
0.6    
0.5    
0.4    
0.3    

0.2    
0.1    
0.0    
1.0    
0.9    

0.8    
0.7    
0.6    
0.5    
0.4    

0.3    
0.2    
0.1    
0.0    
1.0    

0.9    
0.8    
0.7    
0.6    
0.5    

0.4    
0.3    
0.2    
0.1    
0.0    

1.0    
0.9    
0.8    
0.7    
0.6    

0.5    
0.4    
0.3    
0.2    
0.1    

0.0    
1.0    
0.9    
0.8    
0.7    

0.6    
0.5    
0.4    
0.3    
0.2    

0.1    
0.0    
1.0    
0.9    
0.8    

0.7    
0.6    
0.5    
0.4    
0.3    

0.2    
0.1    
0.0    
1.0    
0.9    

0.8    
0.7    
0.6    
0.5    
0.4    

0.3    
0.2    
0.1    
0.0    
1.0    

0.9    
0.8    
0.7    
0.6    
0.5    

0.4    
0.3    
0.2    
0.1    
0.0    

0.9    
1.0    
0.8    
0.7    
0.6    

0.5    
0.4    
0.3    
0.2    
0.1    

0.0    
0.0    0.0    0.0    0.0    0.0    
0.0    0.0    0.0    0.0    0.0    
0.0    0.0    0.0    0.0    0.0    
0.0    0.0    0.0    0.0    0.0    
0.0    0.0    0.0    0.0    0.0    
0.0    0.0    0.0    0.0    0.0    
0.0    0.0    0.0    0.0    0.0    
0.0    0.0    0.0    0.0    0.0    
0.0    0.0    0.0    0.0    0.0    
0.0    0.0    0.0    0.0    0.0    
0.0    0.0    0.0    0.0    0.0    
0.0    0.0    0.0    0.0    0.0    
0.0    0.0    0.0    0.0    0.0    
0.0    0.0    0.0    0.0    0.0    
0.0    0.0    0.0    0.0    0.0    
0.0    0.0    0.0    0.0    0.0    
0.0    0.0    0.0    0.0    0.0    
0.0    0.0    0.0    0.0    0.0    
0.0    0.0    0.0    0.0    0.0    
0.0    0.0    0.0    0.0    0.0    
0.0    0.0    0.0    0.0    0.0    
0.0    0.0    0.0    0.0    0.0    
0.0    0.0    0.0    0.0    0.0    
0.0    0.0    0.0    0.0    0.0    
0.0    
0.0497985591172    0.104303852105    0.104364029323    0.104364097175    0.104364097258    
0.104364097258    0.104364097175    0.104364029323    0.104303852105    0.0497985591172    
0.000162358185465    0.000343346500445    0.00034369262025    0.000343693208112    0.000343693209068    
0.000343693209069    0.000343693208114    0.000343692620251    0.000343346500446    0.000162358185468    
3.12564589806e-07    6.5703924439e-07    6.57800535425e-07    6.57801982249e-07    6.57801984211e-07    
6.5780198494e-07    6.57801982217e-07    6.57800535145e-07    6.57039244459e-07    3.12564591774e-07    
5.27331662441e-10    1.10034019907e-09    1.1017939223e-09    1.10179743452e-09    1.10179718337e-09    
1.10179753413e-09    1.10179794331e-09    1.10179516425e-09    1.10034087075e-09    5.27333790395e-10    
8.56301333964e-13    1.77807406156e-12    1.78056446991e-12    1.77962613267e-12    1.78037110535e-12    
1.78146249666e-12    1.78158064044e-12    1.78123640616e-12    1.77813340446e-12    8.58035241896e-13    
-8.58313484137e-13    -1.77806966315e-12    -1.78126553319e-12    -1.78139444639e-12    -1.78134568167e-12    
-1.7804628969e-12    -1.77951999165e-12    -1.7805998665e-12    -1.77790693516e-12    -8.56617129127e-13    
-5.27333664156e-10    -1.10034068538e-09    -1.10179525845e-09    -1.10179798039e-09    -1.10179769847e-09    
-1.10179711805e-09    -1.10179766404e-09    -1.10179401219e-09    -1.1003403085e-09    -5.27331630313e-10    
-3.12564591876e-07    -6.57039244583e-07    -6.57800535093e-07    -6.57801982315e-07    -6.57801984955e-07    
-6.57801983969e-07    -6.57801982176e-07    -6.57800535306e-07    -6.57039244024e-07    -3.1256458944e-07    
-0.000162358185468    -0.000343346500446    -0.000343692620251    -0.000343693208114    -0.000343693209069    
-0.000343693209068    -0.000343693208112    -0.00034369262025    -0.000343346500445    -0.000162358185465    
-0.0497985591172    -0.104303852105    -0.104364029323    -0.104364097175    -0.104364097258    
-0.104364097258    -0.104364097175    -0.104364029323    -0.104303852105    -0.0497985591172    

-0.0490692709306    -0.000161980739556    -3.1215409961e-07    -5.26858547235e-10    -8.56670163491e-13    
8.56664965682e-13    5.26858534959e-10    3.12154099696e-07    0.000161980739556    0.0490692709306    
-0.104303784606    -0.000343346561699    -6.57039258394e-07    -1.10034086933e-09    -1.77803698128e-12    
1.77809990963e-12    1.10034094119e-09    6.57039258401e-07    0.000343346561699    0.104303784606    
-0.104364029267    -0.000343692620314    -6.57800535267e-07    -1.10179465409e-09    -1.78074496033e-12    
1.78078322415e-12    1.10179467618e-09    6.57800535344e-07    0.000343692620314    0.104364029267    
-0.104364097175    -0.000343693208112    -6.57801982357e-07    -1.1017977077e-09    -1.7807799026e-12    
1.78080089796e-12    1.10179776977e-09    6.57801982387e-07    0.000343693208112    0.104364097175    
-0.104364097258    -0.000343693209068    -6.5780198497e-07    -1.101797782e-09    -1.78077061873e-12    
1.78082357788e-12    1.10179783938e-09    6.57801985004e-07    0.000343693209068    0.104364097258    
-0.104364097258    -0.000343693209068    -6.57801984942e-07    -1.10179779582e-09    -1.78074008511e-12    
1.78077423898e-12    1.10179777322e-09    6.5780198503e-07    0.000343693209068    0.104364097258    
-0.104364097175    -0.000343693208112    -6.57801982301e-07    -1.10179771114e-09    -1.78076029891e-12    
1.78083512641e-12    1.10179777834e-09    6.5780198239e-07    0.000343693208112    0.104364097175    
-0.104364029267    -0.000343692620314    -6.57800535281e-07    -1.10179459125e-09    -1.78075555621e-12    
1.78079781566e-12    1.10179472872e-09    6.57800535381e-07    0.000343692620314    0.104364029267    
-0.104303784606    -0.000343346561699    -6.57039258378e-07    -1.10034086681e-09    -1.77806844916e-12    
1.77811442629e-12    1.10034095857e-09    6.57039258419e-07    0.000343346561699    0.104303784606    
-0.0490692709306    -0.000161980739556    -3.1215409953e-07    -5.2685853279e-10    -8.56666555609e-13    
8.56592608122e-13    5.26858582262e-10    3.12154099698e-07    0.000161980739556    0.0490692709306    

3.43494621683e-17    3.6908948299e-17    3.30283832065e-17    3.95963255111e-17    3.08105864583e-17    
2.5945122599e-17    3.52893883202e-18    1.01522049757e-17    3.85517721606e-17    2.40874252468e-17    
5.87407183671e-18    4.03574061707e-17    2.1893273035e-17    2.28065583007e-17    2.37657468695e-17    
1.94791227585e-17    4.12449824476e-17    3.36124955036e-17    1.45139576279e-17    4.27905359987e-17    
2.19432924551e-17    2.97857883796e-17    3.87565622923e-17    3.20000601787e-17    2.80034447337e-17    
3.31490726126e-17    3.3652523066e-17    8.85022305683e-18    4.09149507481e-17    2.4315769915e-17    
3.69133727673e-17    1.68733861265e-17    3.60480072996e-17    3.36608714877e-17    2.19123827073e-17    
2.14663275161e-17    2.0946125216e-17    1.44596526458e-17    2.26114310851e-17    2.86444504856e-17    
2.46464370197e-17    2.43770674082e-17    3.17409774326e-17    4.11643875783e-17    2.11164202201e-17    
2.45614931926e-17    2.38384380019e-17    2.81383843216e-17    3.34342654184e-17    1.11607586016e-17    
2.67524116834e-17    1.14175056785e-17    2.49070810588e-17    5.94807693724e-18    3.83969860448e-17    
2.27500923696e-17    2.8510666506e-17    3.04190475404e-17    2.7341954893e-17    2.37795903071e-18    
2.38079564924e-17    3.29863227206e-17    2.18145451027e-17    2.6073429122e-17    2.11570586377e-17    
2.80164487652e-17    3.16588985767e-17    2.7967415821e-17    2.54177932728e-17    8.5899692849e-19    
2.3555154906e-17    1.64980910898e-17    3.16791765582e-17    3.19171328017e-17    2.30591027136e-17    
2.94173466127e-17    3.36659183506e-17    1.97954179482e-17    1.27177415599e-17    3.1239397605e-17    
2.98813246578e-17    1.50200559451e-17    3.78934624687e-17    4.14087692225e-17    3.66469219274e-17    
1.63357735263e-17    1.2497142294e-17    1.79471347042e-17    3.33041592258e-17    2.93312432261e-17    
3.85330819855e-17    3.76713379358e-17    1.69056263018e-17    2.51582972003e-17    3.20109052927e-17    
3.03552377196e-17    3.78894011373e-17    3.00163834983e-17    2.49387783232e-17    1.44890840445e-17    

0.984312814909    0.980871233062    0.980720979353    0.980720673238    0.980720672751    
0.980720672751    0.980720673238    0.980720979353    0.980871233062    0.984312814909    
0.980871844095    1.00030652996    1.00015345456    1.00015313156    1.00015313104    
1.00015313104    1.00015313156    1.00015345456    1.00030652996    0.980871844095    
0.980720979862    1.00015345456    1.00000023262    0.999999909302    0.999999908786    
0.999999908786    0.999999909302    1.00000023262    1.00015345456    0.980720979862    
0.980720673238    1.00015313156    0.999999909302    0.999999585986    0.99999958547    
0.99999958547    0.999999585986    0.999999909302    1.00015313156    0.980720673238    
0.980720672751    1.00015313104    0.999999908786    0.99999958547    0.999999584954    
0.999999584954    0.99999958547    0.999999908786    1.00015313104    0.980720672751    
0.980720672751    1.00015313104    0.999999908786    0.99999958547    0.999999584954    
0.999999584954    0.99999958547    0.999999908786    1.00015313104    0.980720672751    
0.980720673238    1.00015313156    0.999999909302    0.999999585986    0.99999958547    
0.99999958547    0.999999585986    0.999999909302    1.00015313156    0.980720673238    
0.980720979862    1.00015345456    1.00000023262    0.999999909302    0.999999908786    
0.999999908786    0.999999909302    1.00000023262    1.00015345456    0.980720979862    
0.980871844095    1.00030652996    1.00015345456    1.00015313156    1.00015313104    
1.00015313104    1.00015313156    1.00015345456    1.00030652996    0.980871844094    
0.984312814909    0.980871233062    0.980720979353    0.980720673238    0.980720672751    
0.980720672751    0.980720673238    0.980720979353    0.980871233062    0.984312814909    

1.74858342948    1.50049823875    1.49989264736    1.4998915855    1.49989158379    
1.49989158379    1.4998915855    1.49989264736    1.50049823875    1.74858342948    
1.50049966335    1.00189680528    1.00095403305    1.00095246356    1.00095246102    
1.00095246102    1.00095246356    1.00095403305    1.00189680528    1.50049966335    
1.49989264872    1.00095403305    1.00001038955    1.00000881835    1.00000881581    
1.00000881581    1.00000881835    1.00001038955    1.00095403305    1.49989264872    
1.4998915855    1.00095246356    1.00000881835    1.00000724714    1.0000072446    
1.0000072446    1.00000724714    1.00000881835    1.00095246356    1.4998915855    
1.49989158379    1.00095246102    1.00000881581    1.0000072446    1.00000724206    
1.00000724206    1.0000072446    1.00000881581    1.00095246102    1.49989158379    
1.49989158379    1.00095246102    1.00000881581    1.0000072446    1.00000724206    
1.00000724206    1.0000072446    1.00000881581    1.00095246102    1.49989158379    
1.4998915855    1.00095246356    1.00000881835    1.00000724714    1.0000072446    
1.0000072446    1.00000724714    1.00000881835    1.00095246356    1.4998915855    
1.49989264872    1.00095403305    1.00001038955    1.00000881835    1.00000881581    
1.00000881581    1.00000881835    1.00001038955    1.00095403305    1.49989264872    
1.50049966335    1.00189680528    1.00095403305    1.00095246356    1.00095246102    
1.00095246102    1.00095246356    1.00095403305    1.00189680528    1.50049966335    
1.74858342948    1.50049823875    1.49989264736    1.4998915855    1.49989158379    
1.49989158379    1.4998915855    1.49989264736    1.50049823875    1.74858342948    

3.58404942134e-07    3.17527183235e-07    3.17462767231e-07    3.17462665447e-07    3.17462665282e-07    
3.17462665282e-07    3.17462665447e-07    3.17462767231e-07    3.17527183235e-07    3.58404942134e-07    
3.17527267203e-07    2.25317379327e-07    2.25173538476e-07    2.25173311391e-07    2.25173311023e-07    
2.25173311023e-07    2.25173311391e-07    2.25173538476e-07    2.25317379327e-07    3.17527267203e-07    
3.17462767331e-07    2.25173538476e-07    2.25029499924e-07    2.25029272469e-07    2.250292721e-07    
2.250292721e-07    2.25029272469e-07    2.25029499924e-07    2.25173538476e-07    3.17462767331e-07    
3.17462665447e-07    2.25173311391e-07    2.25029272469e-07    2.25029045013e-07    2.25029044644e-07    
2.25029044644e-07    2.25029045013e-07    2.25029272469e-07    2.25173311391e-07    3.17462665447e-07    
3.17462665282e-07    2.25173311023e-07    2.250292721e-07    2.25029044644e-07    2.25029044275e-07    
2.25029044275e-07    2.25029044644e-07    2.250292721e-07    2.25173311023e-07    3.17462665282e-07    
3.17462665282e-07    2.25173311023e-07    2.250292721e-07    2.25029044644e-07    2.25029044275e-07    
2.25029044275e-07    2.25029044644e-07    2.250292721e-07    2.25173311023e-07    3.17462665282e-07    
3.17462665447e-07    2.25173311391e-07    2.25029272469e-07    2.25029045013e-07    2.25029044644e-07    
2.25029044644e-07    2.25029045013e-07    2.25029272469e-07    2.25173311391e-07    3.17462665447e-07    
3.17462767331e-07    2.25173538476e-07    2.25029499924e-07    2.25029272469e-07    2.250292721e-07    
2.250292721e-07    2.25029272469e-07    2.25029499924e-07    2.25173538476e-07    3.17462767331e-07    
3.17527267203e-07    2.25317379327e-07    2.25173538476e-07    2.25173311391e-07    2.25173311023e-07    
2.25173311023e-07    2.25173311391e-07    2.25173538476e-07    2.25317379327e-07    3.17527267203e-07    
3.58404942134e-07    3.17527183235e-07    3.17462767231e-07    3.17462665447e-07    3.17462665282e-07    
3.17462665282e-07    3.17462665447e-07    3.17462767231e-07    3.17527183235e-07    3.58404942134e-07    

1.77645094425    1.52976067415    1.5293775487    1.52937694334    1.52937694235    
1.52937694235    1.52937694334    1.5293775487    1.52976067415    1.77645094425    
1.52976117358    1.001589788    1.00080045566    1.00079920961    1.00079920759    
1.00079920759    1.00079920961    1.00080045566    1.001589788    1.52976117358    
1.5293775493    1.00080045566    1.00001015693    1.00000890905    1.00000890702    
1.00000890702    1.00000890905    1.00001015693    1.00080045566    1.5293775493    
1.52937694334    1.00079920961    1.00000890905    1.00000766116    1.00000765913    
1.00000765913    1.00000766116    1.00000890905    1.00079920961    1.52937694334    
1.52937694235    1.00079920759    1.00000890702    1.00000765913    1.00000765711    
1.00000765711    1.00000765913    1.00000890702    1.00079920759    1.52937694235    
1.52937694235    1.00079920759    1.00000890702    1.00000765913    1.00000765711    
1.00000765711    1.00000765913    1.00000890702    1.00079920759    1.52937694235    
1.52937694334    1.00079920961    1.00000890905    1.00000766116    1.00000765913    
1.00000765913    1.00000766116    1.00000890905    1.00079920961    1.52937694334    
1.5293775493    1.00080045566    1.00001015693    1.00000890905    1.00000890702    
1.00000890702    1.00000890905    1.00001015693    1.00080045566    1.5293775493    
1.52976117358    1.001589788    1.00080045566    1.00079920961    1.00079920759    
1.00079920759    1.00079920961    1.00080045566    1.001589788    1.52976117358    
1.77645094425    1.52976067415    1.5293775487    1.52937694334    1.52937694235    
1.52937694235    1.52937694334    1.5293775487    1.52976067415    1.77645094425    

1360.83877623    1318.10159657    1317.83696582    1317.83645537    1317.83645456    
1317.83645456    1317.83645537    1317.83696582    1318.10159657    1360.83877623    
1318.10249945    1240.28818713    1239.91264215    1239.91194841    1239.91194729    
1239.91194729    1239.91194841    1239.91264215    1240.28818713    1318.10249945    
1317.83696661    1239.91264215    1239.53662611    1239.53593146    1239.53593035    
1239.53593035    1239.53593146    1239.53662611    1239.91264215    1317.83696661    
1317.83645538    1239.91194841    1239.53593146    1239.53523681    1239.53523569    
1239.53523569    1239.53523681    1239.53593146    1239.91194841    1317.83645538    
1317.83645456    1239.91194729    1239.53593035    1239.53523569    1239.53523458    
1239.53523458    1239.53523569    1239.53593035    1239.91194729    1317.83645456    
1317.83645456    1239.91194729    1239.53593035    1239.53523569    1239.53523458    
1239.53523458    1239.53523569    1239.53593035    1239.91194729    1317.83645456    
1317.83645538    1239.91194841    1239.53593146    1239.53523681    1239.53523569    
1239.53523569    1239.53523681    1239.53593146    1239.91194841    1317.83645538    
1317.83696661    1239.91264215    1239.53662611    1239.53593146    1239.53593035    
1239.53593035    1239.53593146    1239.53662611    1239.91264215    1317.83696661    
1318.10249945    1240.28818713    1239.91264215    1239.91194841    1239.91194729    
1239.91194729    1239.91194841    1239.91264215    1240.28818713    1318.10249945    
1360.83877623    1318.10159657    1317.83696582    1317.83645537    1317.83645456    
1317.83645456    1317.83645537    1317.83696582    1318.10159657    1360.83877623    

2     4     3     1     4     2     5     6     6     5     7     8     8     7     9     10     10     9     11     12     12     11     13     14     14     13     15     16     16     15     17     18     18     17     19     20     20     19     21     22     3     4     24     23     4     6     25     24     6     8     26     25     8     10     27     26     10     12     28     27     12     14     29     28     14     16     30     29     16     18     31     30     18     20     32     31     20     22     33     32     23     24     35     34     24     25     36     35     25     26     37     36     26     27     38     37     27     28     39     38     28     29     40     39     29     30     41     40     30     31     42     41     31     32     43     42     32     33     44     43     34     35     46     45     35     36     47     46     36     37     48     47     37     38     49     48     38     39     50     49     39     40     51     50     40     41     52     51     41     42     53     52     42     43     54     53     43     44     55     54     45     46     57     56     46     47     58     57     47     48     59     58     48     49     60     59     49     50     61     60     50     51     62     61     51     52     63     62     52     53     64     63     53     54     65     64     54     55     66     65     56     57     68     67     57     58     69     68     58     59     70     69     59     60     71     70     60     61     72     71     61     62     73     72     62     63     74     73     63     64     75     74     64     65     76     75     65     66     77     76     67     68     79     78     68     69     80     79     69     70     81     80     70     71     82     81     71     72     83     82     72     73     84     83     73     74     85     84     74     75     86     85     75     76     87     86     76     77     88     87     78     79     90     89     79     80     91     90     80     81     92     91     81     82     93     92     82     83     94     93     83     84     95     94     84     85     96     95     85     86     97     96     86     87     98     97     87     88     99     98     89     90     101     100     90     91     102     101     91     92     103     102     92     93     104     103     93     94     105     104     94     95     106     105     95     96     107     106     96     97     108     107     97     98     109     108     98     99     110     109     100     101     111     112     101     102     113     111     102     103     114     113     103     104     115     114     104     105     116     115     105     106     117     116     106     107     118     117     107     108     119     118     108     109     120     119     109     110     121     120     

