Title = " tecplot out file" 
variables = "x", "y", "z", "velX", "velY", "velZ","density","pressure","viscosity","temperature", "collisionFrequency",
Zone T = "nmesh0" N = 121 E = 100 DATAPACKING = BLOCK, VARLOCATION = ([4-11]=CELLCENTERED),  ZONETYPE=FEQUADRILATERAL 
0.0    
0.0    
0.1    
0.1    
0.0    

0.1    
0.0    
0.1    
0.0    
0.1    

0.0    
0.1    
0.0    
0.1    
0.0    

0.1    
0.0    
0.1    
0.0    
0.1    

0.0    
0.1    
0.2    
0.2    
0.2    

0.2    
0.2    
0.2    
0.2    
0.2    

0.2    
0.2    
0.2    
0.3    
0.3    

0.3    
0.3    
0.3    
0.3    
0.3    

0.3    
0.3    
0.3    
0.3    
0.4    

0.4    
0.4    
0.4    
0.4    
0.4    

0.4    
0.4    
0.4    
0.4    
0.4    

0.5    
0.5    
0.5    
0.5    
0.5    

0.5    
0.5    
0.5    
0.5    
0.5    

0.5    
0.6    
0.6    
0.6    
0.6    

0.6    
0.6    
0.6    
0.6    
0.6    

0.6    
0.6    
0.7    
0.7    
0.7    

0.7    
0.7    
0.7    
0.7    
0.7    

0.7    
0.7    
0.7    
0.8    
0.8    

0.8    
0.8    
0.8    
0.8    
0.8    

0.8    
0.8    
0.8    
0.8    
0.9    

0.9    
0.9    
0.9    
0.9    
0.9    

0.9    
0.9    
0.9    
0.9    
0.9    

1.0    
1.0    
1.0    
1.0    
1.0    

1.0    
1.0    
1.0    
1.0    
1.0    

1.0    
1.0    
0.9    
1.0    
0.9    
0.8    

0.8    
0.7    
0.7    
0.6    
0.6    

0.5    
0.5    
0.4    
0.4    
0.3    

0.3    
0.2    
0.2    
0.1    
0.1    

0.0    
0.0    
1.0    
0.9    
0.8    

0.7    
0.6    
0.5    
0.4    
0.3    

0.2    
0.1    
0.0    
1.0    
0.9    

0.8    
0.7    
0.6    
0.5    
0.4    

0.3    
0.2    
0.1    
0.0    
1.0    

0.9    
0.8    
0.7    
0.6    
0.5    

0.4    
0.3    
0.2    
0.1    
0.0    

1.0    
0.9    
0.8    
0.7    
0.6    

0.5    
0.4    
0.3    
0.2    
0.1    

0.0    
1.0    
0.9    
0.8    
0.7    

0.6    
0.5    
0.4    
0.3    
0.2    

0.1    
0.0    
1.0    
0.9    
0.8    

0.7    
0.6    
0.5    
0.4    
0.3    

0.2    
0.1    
0.0    
1.0    
0.9    

0.8    
0.7    
0.6    
0.5    
0.4    

0.3    
0.2    
0.1    
0.0    
1.0    

0.9    
0.8    
0.7    
0.6    
0.5    

0.4    
0.3    
0.2    
0.1    
0.0    

0.9    
1.0    
0.8    
0.7    
0.6    

0.5    
0.4    
0.3    
0.2    
0.1    

0.0    
0.0    0.0    0.0    0.0    0.0    
0.0    0.0    0.0    0.0    0.0    
0.0    0.0    0.0    0.0    0.0    
0.0    0.0    0.0    0.0    0.0    
0.0    0.0    0.0    0.0    0.0    
0.0    0.0    0.0    0.0    0.0    
0.0    0.0    0.0    0.0    0.0    
0.0    0.0    0.0    0.0    0.0    
0.0    0.0    0.0    0.0    0.0    
0.0    0.0    0.0    0.0    0.0    
0.0    0.0    0.0    0.0    0.0    
0.0    0.0    0.0    0.0    0.0    
0.0    0.0    0.0    0.0    0.0    
0.0    0.0    0.0    0.0    0.0    
0.0    0.0    0.0    0.0    0.0    
0.0    0.0    0.0    0.0    0.0    
0.0    0.0    0.0    0.0    0.0    
0.0    0.0    0.0    0.0    0.0    
0.0    0.0    0.0    0.0    0.0    
0.0    0.0    0.0    0.0    0.0    
0.0    0.0    0.0    0.0    0.0    
0.0    0.0    0.0    0.0    0.0    
0.0    0.0    0.0    0.0    0.0    
0.0    0.0    0.0    0.0    0.0    
0.0    
0.0539513353225    0.108974038071    0.108994543514    0.108994555179    0.108994555188    
0.108994555188    0.108994555179    0.108994543514    0.108974038071    0.0539513353225    
5.69615899567e-05    0.000116109823569    0.000116171127212    0.000116171189254    0.000116171189321    
0.000116171189321    0.000116171189254    0.000116171127213    0.000116109823569    5.6961589956e-05    
5.49770925468e-08    1.12109847114e-07    1.12187889035e-07    1.12187986477e-07    1.1218798718e-07    
1.12187987395e-07    1.12187987394e-07    1.12187890106e-07    1.12109848012e-07    5.49770927794e-08    
5.59518296607e-11    1.14155006716e-10    1.14253757396e-10    1.14254465868e-10    1.14254352494e-10    
1.14254826553e-10    1.14254946167e-10    1.14255165848e-10    1.14155946996e-10    5.5951174607e-11    
6.07213698488e-14    1.24145590426e-13    1.24284160109e-13    1.24587711631e-13    1.24494828738e-13    
1.25175084099e-13    1.25110100887e-13    1.2533273616e-13    1.25224824555e-13    6.13167057888e-14    
-6.09864418878e-14    -1.25112909178e-13    -1.25181801638e-13    -1.24783581782e-13    -1.25048688483e-13    
-1.24484064925e-13    -1.24613333207e-13    -1.24302229303e-13    -1.2394906429e-13    -6.07136471496e-14    
-5.59509674551e-11    -1.14155661052e-10    -1.14255196735e-10    -1.14254852495e-10    -1.14254771569e-10    
-1.1425439056e-10    -1.14254526638e-10    -1.14253819504e-10    -1.14154944493e-10    -5.59516643735e-11    
-5.49770925174e-08    -1.12109847999e-07    -1.12187890123e-07    -1.12187987269e-07    -1.12187987305e-07    
-1.12187987257e-07    -1.12187986665e-07    -1.12187889024e-07    -1.12109846949e-07    -5.49770925012e-08    
-5.69615899554e-05    -0.000116109823569    -0.000116171127213    -0.000116171189254    -0.000116171189321    
-0.000116171189321    -0.000116171189255    -0.000116171127212    -0.000116109823569    -5.69615899567e-05    
-0.0539513353225    -0.108974038071    -0.108994543514    -0.108994555179    -0.108994555188    
-0.108994555188    -0.108994555179    -0.108994543514    -0.108974038071    -0.0539513353225    

-0.0533433133741    -5.69615899583e-05    -5.49770928512e-08    -5.5951497465e-11    -6.09636216081e-14    
6.10542741372e-14    5.5951530199e-11    5.49770929559e-08    5.69615899584e-05    0.0533433133741    
-0.108974038071    -0.000116109823569    -1.12109847498e-07    -1.14155231729e-10    -1.24532814923e-13    
1.24637347062e-13    1.14155294883e-10    1.12109847595e-07    0.000116109823569    0.108974038071    
-0.108994543514    -0.000116171127213    -1.12187889709e-07    -1.14254381635e-10    -1.24706247401e-13    
1.24715559273e-13    1.1425438523e-10    1.12187889756e-07    0.000116171127213    0.108994543514    
-0.108994555179    -0.000116171189255    -1.12187987036e-07    -1.14254483263e-10    -1.24679144251e-13    
1.24732496706e-13    1.14254521096e-10    1.1218798707e-07    0.000116171189255    0.108994555179    
-0.108994555188    -0.000116171189322    -1.12187987217e-07    -1.14254549715e-10    -1.24697661751e-13    
1.24713158628e-13    1.14254562499e-10    1.12187987201e-07    0.000116171189322    0.108994555188    
-0.108994555188    -0.000116171189322    -1.12187987197e-07    -1.14254539162e-10    -1.24727103945e-13    
1.24742683475e-13    1.14254586945e-10    1.12187987235e-07    0.000116171189322    0.108994555188    
-0.108994555179    -0.000116171189255    -1.12187987027e-07    -1.14254512855e-10    -1.24700689826e-13    
1.24742556123e-13    1.14254585048e-10    1.12187987096e-07    0.000116171189255    0.108994555179    
-0.108994543514    -0.000116171127213    -1.12187889725e-07    -1.14254381723e-10    -1.24728444872e-13    
1.24687029211e-13    1.1425437064e-10    1.1218788976e-07    0.000116171127213    0.108994543514    
-0.108974038071    -0.000116109823569    -1.1210984753e-07    -1.14155202814e-10    -1.24552412106e-13    
1.24604122605e-13    1.14155257659e-10    1.12109847538e-07    0.000116109823569    0.108974038071    
-0.0533433133741    -5.69615899583e-05    -5.49770928746e-08    -5.59514796449e-11    -6.10040746728e-14    
6.10513617693e-14    5.59515029859e-11    5.49770929749e-08    5.69615899583e-05    0.0533433133741    

2.26855752923e-17    2.00669043797e-17    1.80884458503e-17    1.38182734581e-17    2.24994889572e-17    
1.72812569912e-17    2.6785431303e-17    2.15142906313e-17    2.48485814783e-17    4.00941384565e-17    
3.01954647398e-17    1.40275245918e-17    2.69914483638e-17    6.60201456385e-18    2.00204122627e-17    
1.69566703338e-17    2.47100784717e-17    2.77616956116e-17    6.3444814376e-18    2.15470488737e-17    
1.77699219145e-17    1.91311670607e-17    1.80820955319e-17    3.02572754098e-17    1.67639063616e-17    
1.30836811749e-17    2.84964810539e-17    1.95613268039e-17    1.65931002167e-17    2.1567537079e-17    
1.82959215552e-17    1.59110951336e-17    1.63057155206e-17    3.24772714133e-17    2.71562689775e-17    
2.84086654843e-17    3.03166670595e-17    2.10889858373e-17    1.71860281581e-17    1.56742280833e-17    
2.90483299526e-17    1.69972724847e-17    2.00055914497e-17    3.98282635599e-17    1.88273893076e-17    
6.40811447351e-18    2.55987823162e-17    2.08385067604e-17    1.24659227089e-17    2.29967252846e-17    
2.39759959778e-17    2.2395922632e-17    1.60603949229e-17    1.7906686969e-17    5.80146100682e-18    
2.66508907812e-17    3.28686864585e-17    2.34628734428e-17    2.30493302199e-17    1.60112525156e-17    
2.30370875058e-17    2.22396416115e-17    2.28471370876e-17    3.36940951903e-17    1.92582838866e-17    
4.03270092644e-17    3.28826939481e-17    2.4099844954e-17    2.22448235296e-17    1.32061866134e-17    
1.74947604339e-17    2.22153087572e-17    1.28745242265e-17    1.98159997236e-17    5.38190806486e-18    
1.2574683845e-17    2.24720570227e-17    2.41013221699e-17    2.22392164686e-17    2.69372954612e-17    
1.70621704216e-17    1.01464009471e-17    1.97320109758e-17    2.45503169472e-17    1.77870904404e-17    
2.1208826657e-17    2.52260970937e-17    2.22855400882e-17    1.86425430908e-17    1.42171160124e-17    
1.98623585222e-17    2.89170600902e-17    2.50660187913e-17    3.90827417856e-17    2.70261677153e-17    
2.43827492796e-17    2.27230783386e-17    2.56822616308e-17    3.15148332684e-17    2.72411369229e-17    

0.995311502629    0.993382997176    0.993332091258    0.993332038321    0.99333203827    
0.99333203827    0.993332038321    0.993332091258    0.993382997176    0.995311502629    
0.993382997176    1.00010447857    1.00005206292    1.00005200837    1.00005200832    
1.00005200832    1.00005200837    1.00005206292    1.00010447857    0.993382997176    
0.993332091258    1.00005206292    0.999999613618    0.999999559025    0.999999558973    
0.999999558973    0.999999559025    0.999999613618    1.00005206292    0.993332091258    
0.993332038321    1.00005200837    0.999999559025    0.999999504432    0.99999950438    
0.99999950438    0.999999504432    0.999999559025    1.00005200837    0.993332038321    
0.99333203827    1.00005200832    0.999999558973    0.99999950438    0.999999504327    
0.999999504327    0.99999950438    0.999999558973    1.00005200832    0.99333203827    
0.99333203827    1.00005200832    0.999999558973    0.99999950438    0.999999504327    
0.999999504327    0.99999950438    0.999999558973    1.00005200832    0.99333203827    
0.993332038321    1.00005200837    0.999999559025    0.999999504432    0.99999950438    
0.99999950438    0.999999504432    0.999999559025    1.00005200837    0.993332038321    
0.993332091258    1.00005206292    0.999999613618    0.999999559025    0.999999558973    
0.999999558973    0.999999559025    0.999999613618    1.00005206292    0.993332091258    
0.993382997176    1.00010447857    1.00005206292    1.00005200837    1.00005200832    
1.00005200832    1.00005200837    1.00005206292    1.00010447857    0.993382997176    
0.995311502629    0.993382997176    0.993332091258    0.993332038321    0.99333203827    
0.99333203827    0.993332038321    0.993332091258    0.993382997176    0.995311502629    

1.7484562549    1.49482070203    1.49461134632    1.4946111604    1.49461116022    
1.49461116022    1.4946111604    1.49461134632    1.49482070203    1.7484562549    
1.49482070203    1.00064310833    1.00032512759    1.00032485849    1.00032485823    
1.00032485823    1.00032485849    1.00032512759    1.00064310833    1.49482070203    
1.49461134632    1.00032512759    1.00000697603    1.00000670673    1.00000670646    
1.00000670646    1.00000670673    1.00000697603    1.00032512759    1.49461134632    
1.4946111604    1.00032485849    1.00000670673    1.00000643743    1.00000643716    
1.00000643716    1.00000643743    1.00000670673    1.00032485849    1.4946111604    
1.49461116022    1.00032485823    1.00000670646    1.00000643716    1.0000064369    
1.0000064369    1.00000643716    1.00000670646    1.00032485823    1.49461116022    
1.49461116022    1.00032485823    1.00000670646    1.00000643716    1.0000064369    
1.0000064369    1.00000643716    1.00000670646    1.00032485823    1.49461116022    
1.4946111604    1.00032485849    1.00000670673    1.00000643743    1.00000643716    
1.00000643716    1.00000643743    1.00000670673    1.00032485849    1.4946111604    
1.49461134632    1.00032512759    1.00000697603    1.00000670673    1.00000670646    
1.00000670646    1.00000670673    1.00000697603    1.00032512759    1.49461134632    
1.49482070203    1.00064310833    1.00032512759    1.00032485849    1.00032485823    
1.00032485823    1.00032485849    1.00032512759    1.00064310833    1.49482070203    
1.7484562549    1.49482070203    1.49461134632    1.4946111604    1.49461116022    
1.49461116022    1.4946111604    1.49461134632    1.49482070203    1.7484562549    

3.55172586415e-07    3.13320283719e-07    3.13297743574e-07    3.1329772553e-07    3.13297725512e-07    
3.13297725512e-07    3.1329772553e-07    3.13297743574e-07    3.13320283719e-07    3.55172586415e-07    
3.13320283719e-07    2.25125810654e-07    2.25077416866e-07    2.25077377767e-07    2.25077377728e-07    
2.25077377728e-07    2.25077377767e-07    2.25077416866e-07    2.25125810654e-07    3.13320283719e-07    
3.13297743574e-07    2.25077416866e-07    2.2502899056e-07    2.25028951425e-07    2.25028951386e-07    
2.25028951386e-07    2.25028951425e-07    2.2502899056e-07    2.25077416866e-07    3.13297743574e-07    
3.1329772553e-07    2.25077377767e-07    2.25028951425e-07    2.2502891229e-07    2.25028912252e-07    
2.25028912252e-07    2.2502891229e-07    2.25028951425e-07    2.25077377767e-07    3.1329772553e-07    
3.13297725512e-07    2.25077377728e-07    2.25028951386e-07    2.25028912252e-07    2.25028912213e-07    
2.25028912213e-07    2.25028912252e-07    2.25028951386e-07    2.25077377728e-07    3.13297725512e-07    
3.13297725512e-07    2.25077377728e-07    2.25028951386e-07    2.25028912252e-07    2.25028912213e-07    
2.25028912213e-07    2.25028912252e-07    2.25028951386e-07    2.25077377728e-07    3.13297725512e-07    
3.1329772553e-07    2.25077377767e-07    2.25028951425e-07    2.2502891229e-07    2.25028912252e-07    
2.25028912252e-07    2.2502891229e-07    2.25028951425e-07    2.25077377767e-07    3.1329772553e-07    
3.13297743574e-07    2.25077416866e-07    2.2502899056e-07    2.25028951425e-07    2.25028951386e-07    
2.25028951386e-07    2.25028951425e-07    2.2502899056e-07    2.25077416866e-07    3.13297743574e-07    
3.13320283719e-07    2.25125810654e-07    2.25077416866e-07    2.25077377767e-07    2.25077377728e-07    
2.25077377728e-07    2.25077377767e-07    2.25077416866e-07    2.25125810654e-07    3.13320283719e-07    
3.55172586415e-07    3.13320283719e-07    3.13297743574e-07    3.1329772553e-07    3.13297725512e-07    
3.13297725512e-07    3.1329772553e-07    3.13297743574e-07    3.13320283719e-07    3.55172586415e-07    

1.75669250308    1.50477782112    1.50464417638    1.50464406939    1.50464406929    
1.50464406929    1.50464406939    1.50464417638    1.50477782112    1.75669250308    
1.50477782112    1.00053857349    1.00027305045    1.00027283593    1.00027283572    
1.00027283572    1.00027283593    1.00027305045    1.00053857349    1.50477782112    
1.50464417638    1.00027305045    1.00000736241    1.00000714771    1.00000714749    
1.00000714749    1.00000714771    1.00000736241    1.00027305045    1.50464417638    
1.50464406939    1.00027283593    1.00000714771    1.000006933    1.00000693279    
1.00000693279    1.000006933    1.00000714771    1.00027283593    1.50464406939    
1.50464406929    1.00027283572    1.00000714749    1.00000693279    1.00000693258    
1.00000693258    1.00000693279    1.00000714749    1.00027283572    1.50464406929    
1.50464406929    1.00027283572    1.00000714749    1.00000693279    1.00000693258    
1.00000693258    1.00000693279    1.00000714749    1.00027283572    1.50464406929    
1.50464406939    1.00027283593    1.00000714771    1.000006933    1.00000693279    
1.00000693279    1.000006933    1.00000714771    1.00027283593    1.50464406939    
1.50464417638    1.00027305045    1.00000736241    1.00000714771    1.00000714749    
1.00000714749    1.00000714771    1.00000736241    1.00027305045    1.50464417638    
1.50477782112    1.00053857349    1.00027305045    1.00027283593    1.00027283572    
1.00027283572    1.00027283593    1.00027305045    1.00053857349    1.50477782112    
1.75669250308    1.50477782112    1.50464417638    1.50464406939    1.50464406929    
1.50464406929    1.50464406939    1.50464417638    1.50477782112    1.75669250308    

1373.12362714    1330.74517317    1330.6545237    1330.65443481    1330.65443472    
1330.65443472    1330.65443481    1330.6545237    1330.74517317    1373.12362714    
1330.74517317    1239.79027626    1239.66278222    1239.66266408    1239.66266396    
1239.66266396    1239.66266408    1239.66278222    1239.79027626    1330.74517317    
1330.6545237    1239.66278222    1239.5352007    1239.53508247    1239.53508235    
1239.53508235    1239.53508247    1239.5352007    1239.66278222    1330.6545237    
1330.65443481    1239.66266408    1239.53508247    1239.53496423    1239.53496412    
1239.53496412    1239.53496423    1239.53508247    1239.66266408    1330.65443481    
1330.65443472    1239.66266396    1239.53508235    1239.53496412    1239.534964    
1239.534964    1239.53496412    1239.53508235    1239.66266396    1330.65443472    
1330.65443472    1239.66266396    1239.53508235    1239.53496412    1239.534964    
1239.534964    1239.53496412    1239.53508235    1239.66266396    1330.65443472    
1330.65443481    1239.66266408    1239.53508247    1239.53496423    1239.53496412    
1239.53496412    1239.53496423    1239.53508247    1239.66266408    1330.65443481    
1330.6545237    1239.66278222    1239.5352007    1239.53508247    1239.53508235    
1239.53508235    1239.53508247    1239.5352007    1239.66278222    1330.6545237    
1330.74517317    1239.79027626    1239.66278222    1239.66266408    1239.66266396    
1239.66266396    1239.66266408    1239.66278222    1239.79027626    1330.74517317    
1373.12362714    1330.74517317    1330.6545237    1330.65443481    1330.65443472    
1330.65443472    1330.65443481    1330.6545237    1330.74517317    1373.12362714    

2     4     3     1     4     2     5     6     6     5     7     8     8     7     9     10     10     9     11     12     12     11     13     14     14     13     15     16     16     15     17     18     18     17     19     20     20     19     21     22     3     4     24     23     4     6     25     24     6     8     26     25     8     10     27     26     10     12     28     27     12     14     29     28     14     16     30     29     16     18     31     30     18     20     32     31     20     22     33     32     23     24     35     34     24     25     36     35     25     26     37     36     26     27     38     37     27     28     39     38     28     29     40     39     29     30     41     40     30     31     42     41     31     32     43     42     32     33     44     43     34     35     46     45     35     36     47     46     36     37     48     47     37     38     49     48     38     39     50     49     39     40     51     50     40     41     52     51     41     42     53     52     42     43     54     53     43     44     55     54     45     46     57     56     46     47     58     57     47     48     59     58     48     49     60     59     49     50     61     60     50     51     62     61     51     52     63     62     52     53     64     63     53     54     65     64     54     55     66     65     56     57     68     67     57     58     69     68     58     59     70     69     59     60     71     70     60     61     72     71     61     62     73     72     62     63     74     73     63     64     75     74     64     65     76     75     65     66     77     76     67     68     79     78     68     69     80     79     69     70     81     80     70     71     82     81     71     72     83     82     72     73     84     83     73     74     85     84     74     75     86     85     75     76     87     86     76     77     88     87     78     79     90     89     79     80     91     90     80     81     92     91     81     82     93     92     82     83     94     93     83     84     95     94     84     85     96     95     85     86     97     96     86     87     98     97     87     88     99     98     89     90     101     100     90     91     102     101     91     92     103     102     92     93     104     103     93     94     105     104     94     95     106     105     95     96     107     106     96     97     108     107     97     98     109     108     98     99     110     109     100     101     111     112     101     102     113     111     102     103     114     113     103     104     115     114     104     105     116     115     105     106     117     116     106     107     118     117     107     108     119     118     108     109     120     119     109     110     121     120     

