Title = " tecplot out file" 
variables = "x", "y", "z", "velX", "velY", "velZ","density","pressure","viscosity","temperature", "collisionFrequency",
Zone T = "nmesh0" N = 121 E = 100 DATAPACKING = BLOCK, VARLOCATION = ([4-11]=CELLCENTERED),  ZONETYPE=FEQUADRILATERAL 
0.0    
0.0    
0.1    
0.1    
0.0    

0.1    
0.0    
0.1    
0.0    
0.1    

0.0    
0.1    
0.0    
0.1    
0.0    

0.1    
0.0    
0.1    
0.0    
0.1    

0.0    
0.1    
0.2    
0.2    
0.2    

0.2    
0.2    
0.2    
0.2    
0.2    

0.2    
0.2    
0.2    
0.3    
0.3    

0.3    
0.3    
0.3    
0.3    
0.3    

0.3    
0.3    
0.3    
0.3    
0.4    

0.4    
0.4    
0.4    
0.4    
0.4    

0.4    
0.4    
0.4    
0.4    
0.4    

0.5    
0.5    
0.5    
0.5    
0.5    

0.5    
0.5    
0.5    
0.5    
0.5    

0.5    
0.6    
0.6    
0.6    
0.6    

0.6    
0.6    
0.6    
0.6    
0.6    

0.6    
0.6    
0.7    
0.7    
0.7    

0.7    
0.7    
0.7    
0.7    
0.7    

0.7    
0.7    
0.7    
0.8    
0.8    

0.8    
0.8    
0.8    
0.8    
0.8    

0.8    
0.8    
0.8    
0.8    
0.9    

0.9    
0.9    
0.9    
0.9    
0.9    

0.9    
0.9    
0.9    
0.9    
0.9    

1.0    
1.0    
1.0    
1.0    
1.0    

1.0    
1.0    
1.0    
1.0    
1.0    

1.0    
1.0    
0.9    
1.0    
0.9    
0.8    

0.8    
0.7    
0.7    
0.6    
0.6    

0.5    
0.5    
0.4    
0.4    
0.3    

0.3    
0.2    
0.2    
0.1    
0.1    

0.0    
0.0    
1.0    
0.9    
0.8    

0.7    
0.6    
0.5    
0.4    
0.3    

0.2    
0.1    
0.0    
1.0    
0.9    

0.8    
0.7    
0.6    
0.5    
0.4    

0.3    
0.2    
0.1    
0.0    
1.0    

0.9    
0.8    
0.7    
0.6    
0.5    

0.4    
0.3    
0.2    
0.1    
0.0    

1.0    
0.9    
0.8    
0.7    
0.6    

0.5    
0.4    
0.3    
0.2    
0.1    

0.0    
1.0    
0.9    
0.8    
0.7    

0.6    
0.5    
0.4    
0.3    
0.2    

0.1    
0.0    
1.0    
0.9    
0.8    

0.7    
0.6    
0.5    
0.4    
0.3    

0.2    
0.1    
0.0    
1.0    
0.9    

0.8    
0.7    
0.6    
0.5    
0.4    

0.3    
0.2    
0.1    
0.0    
1.0    

0.9    
0.8    
0.7    
0.6    
0.5    

0.4    
0.3    
0.2    
0.1    
0.0    

0.9    
1.0    
0.8    
0.7    
0.6    

0.5    
0.4    
0.3    
0.2    
0.1    

0.0    
0.0    0.0    0.0    0.0    0.0    
0.0    0.0    0.0    0.0    0.0    
0.0    0.0    0.0    0.0    0.0    
0.0    0.0    0.0    0.0    0.0    
0.0    0.0    0.0    0.0    0.0    
0.0    0.0    0.0    0.0    0.0    
0.0    0.0    0.0    0.0    0.0    
0.0    0.0    0.0    0.0    0.0    
0.0    0.0    0.0    0.0    0.0    
0.0    0.0    0.0    0.0    0.0    
0.0    0.0    0.0    0.0    0.0    
0.0    0.0    0.0    0.0    0.0    
0.0    0.0    0.0    0.0    0.0    
0.0    0.0    0.0    0.0    0.0    
0.0    0.0    0.0    0.0    0.0    
0.0    0.0    0.0    0.0    0.0    
0.0    0.0    0.0    0.0    0.0    
0.0    0.0    0.0    0.0    0.0    
0.0    0.0    0.0    0.0    0.0    
0.0    0.0    0.0    0.0    0.0    
0.0    0.0    0.0    0.0    0.0    
0.0    0.0    0.0    0.0    0.0    
0.0    0.0    0.0    0.0    0.0    
0.0    0.0    0.0    0.0    0.0    
0.0    
0.047779702528    0.10203272261    0.102112011753    0.102112123038    0.102112123201    
0.102112123201    0.102112123038    0.102112011753    0.10203272261    0.047779702528    
0.000210750556391    0.000454589828522    0.000455157065427    0.000455158219335    0.000455158221521    
0.000455158221522    0.000455158219335    0.000455157065427    0.000454589828522    0.000210750556393    
5.06911220333e-07    1.08260277118e-06    1.08410771751e-06    1.08411106967e-06    1.08411107672e-06    
1.08411107674e-06    1.08411107006e-06    1.08410771727e-06    1.08260277025e-06    5.06911217989e-07    
1.02381978127e-09    2.16142653719e-09    2.16477470309e-09    2.16478304345e-09    2.16478310326e-09    
2.16478316142e-09    2.1647835793e-09    2.16477557581e-09    2.16142647623e-09    1.02381877979e-09    
1.93568126857e-12    4.04843454354e-12    4.05508067854e-12    4.05538953962e-12    4.05526922294e-12    
4.05563219444e-12    4.05595461219e-12    4.05605924073e-12    4.04852151927e-12    1.9363487447e-12    
-1.93634116376e-12    -4.04855466879e-12    -4.05623091052e-12    -4.05555777021e-12    -4.05540192357e-12    
-4.05524124808e-12    -4.05536722759e-12    -4.05520465051e-12    -4.04819236217e-12    -1.93548341996e-12    
-1.02381868831e-09    -2.16142615552e-09    -2.16477560067e-09    -2.16478340156e-09    -2.16478319697e-09    
-2.16478312236e-09    -2.1647828956e-09    -2.16477482697e-09    -2.16142664485e-09    -1.02381967129e-09    
-5.06911217808e-07    -1.08260277016e-06    -1.08410771704e-06    -1.08411107011e-06    -1.0841110766e-06    
-1.08411107649e-06    -1.08411106979e-06    -1.08410771724e-06    -1.08260277081e-06    -5.06911220354e-07    
-0.000210750556393    -0.000454589828522    -0.000455157065427    -0.000455158219335    -0.000455158221522    
-0.000455158221521    -0.000455158219335    -0.000455157065427    -0.000454589828522    -0.000210750556391    
-0.047779702528    -0.10203272261    -0.102112011753    -0.102112123038    -0.102112123201    
-0.102112123201    -0.102112123038    -0.102112011753    -0.10203272261    -0.047779702528    

-0.0470727383744    -0.000210175919632    -5.06079867583e-07    -1.02262666443e-09    -1.93411884495e-12    
1.93417980314e-12    1.02262666183e-09    5.06079867633e-07    0.000210175919632    0.0470727383744    
-0.102032618501    -0.000454590028019    -1.08260285838e-06    -2.16142654809e-09    -4.04847377113e-12    
4.04850276898e-12    2.16142664139e-09    1.08260285849e-06    0.000454590028019    0.102032618501    
-0.102112011638    -0.00045515706568    -1.0841077176e-06    -2.16477527726e-09    -4.05549389824e-12    
4.05554119802e-12    2.16477535128e-09    1.08410771776e-06    0.00045515706568    0.102112011638    
-0.102112123038    -0.000455158219334    -1.08411107002e-06    -2.16478342239e-09    -4.05551715685e-12    
4.05552339825e-12    2.16478348267e-09    1.0841110702e-06    0.000455158219335    0.102112123038    
-0.102112123201    -0.000455158221521    -1.08411107702e-06    -2.1647834639e-09    -4.05548633339e-12    
4.05554867022e-12    2.1647835302e-09    1.08411107703e-06    0.000455158221522    0.102112123201    
-0.102112123201    -0.000455158221522    -1.08411107697e-06    -2.16478351413e-09    -4.0554475515e-12    
4.05551439169e-12    2.16478349579e-09    1.08411107706e-06    0.000455158221522    0.102112123201    
-0.102112123038    -0.000455158219334    -1.08411107002e-06    -2.16478351989e-09    -4.05547625523e-12    
4.05550292054e-12    2.16478350362e-09    1.0841110702e-06    0.000455158219335    0.102112123038    
-0.102112011638    -0.00045515706568    -1.08410771764e-06    -2.16477523045e-09    -4.05552564783e-12    
4.05556978248e-12    2.1647753726e-09    1.08410771776e-06    0.00045515706568    0.102112011638    
-0.102032618501    -0.000454590028019    -1.08260285843e-06    -2.16142656984e-09    -4.0484840358e-12    
4.0485574059e-12    2.16142665099e-09    1.08260285847e-06    0.000454590028019    0.102032618501    
-0.0470727383743    -0.000210175919632    -5.06079867587e-07    -1.02262672509e-09    -1.93407852296e-12    
1.93418265428e-12    1.02262677129e-09    5.06079867594e-07    0.000210175919632    0.0470727383743    

1.29718537995e-17    2.5926067547e-17    2.72440663335e-17    3.50757195661e-17    1.11514673481e-17    
1.48745731769e-17    -2.4893160562e-18    1.30068556428e-17    1.75696538744e-17    3.02336685349e-17    
3.19654888209e-17    3.13594812244e-17    4.1783609853e-17    2.33277256365e-17    4.21188970398e-17    
2.91350567908e-17    2.63458845613e-17    2.31571355698e-17    1.61518889352e-17    2.6593155812e-17    
1.51960944504e-17    1.84142918739e-17    4.33115027554e-17    2.57038110145e-17    3.35671946187e-17    
3.78217323061e-17    6.86614201901e-18    4.23330970145e-17    4.2796913515e-17    3.49365137023e-17    
2.72976654648e-17    1.73805686103e-17    4.68171334642e-17    3.73132534978e-17    9.10868845294e-18    
1.33085123632e-17    2.5340138243e-17    2.51909740042e-17    3.63242614924e-17    2.15400019227e-17    
2.62683375481e-17    3.24057253915e-17    2.15742974713e-17    1.12713599787e-17    2.44550944758e-17    
2.15625522094e-17    2.24086132076e-17    3.14379610212e-17    2.2263840022e-17    3.00349730247e-17    
1.90956732901e-17    1.96713256261e-17    1.8789808292e-17    2.48991059218e-17    3.364715816e-17    
1.86470529776e-17    3.05488726178e-17    2.04835054719e-17    3.59315580809e-17    2.31048807613e-17    
1.91017389463e-17    2.46039792938e-17    3.55517364339e-17    3.17184026558e-17    2.37718885645e-17    
2.21915539508e-17    3.70022350746e-17    1.79222561616e-17    2.30710252146e-17    1.53920532544e-17    
3.25773989057e-17    1.8361717055e-17    1.82476688797e-17    1.91825550645e-17    2.92657991576e-17    
2.57951481566e-17    3.78178637432e-17    3.17316977452e-17    2.96684858816e-17    -4.66041057165e-18    
3.887759172e-17    2.09991140025e-17    2.61062064416e-17    1.16852822772e-17    2.48299516229e-17    
2.29396033238e-17    4.41965134412e-17    3.31579191244e-17    2.73192730274e-17    2.33878897162e-17    
4.08857638719e-17    2.41910724969e-17    1.95217331209e-17    2.04545249975e-17    1.85098474719e-17    
2.2829602604e-17    3.12528713977e-17    2.71492042662e-17    1.9633930175e-17    2.27565763137e-17    

0.979054263538    0.974953232762    0.974754683996    0.974754183095    0.974754182144    
0.974754182144    0.974754183095    0.974754683996    0.974953232762    0.979054263538    
0.974954171025    1.00040375273    1.00020233879    1.00020180395    1.00020180293    
1.00020180293    1.00020180395    1.00020233879    1.00040375273    0.974954171025    
0.974754685033    1.00020233879    1.00000069819    1.00000016275    1.00000016173    
1.00000016173    1.00000016275    1.00000069819    1.00020233879    0.974754685033    
0.974754183096    1.00020180395    1.00000016275    0.999999627312    0.999999626291    
0.999999626291    0.999999627312    1.00000016275    1.00020180395    0.974754183096    
0.974754182144    1.00020180293    1.00000016173    0.999999626291    0.999999625269    
0.999999625269    0.999999626291    1.00000016173    1.00020180293    0.974754182144    
0.974754182144    1.00020180293    1.00000016173    0.999999626291    0.999999625269    
0.999999625269    0.999999626291    1.00000016173    1.00020180293    0.974754182144    
0.974754183096    1.00020180395    1.00000016275    0.999999627312    0.999999626291    
0.999999626291    0.999999627312    1.00000016275    1.00020180395    0.974754183096    
0.974754685033    1.00020233879    1.00000069819    1.00000016275    1.00000016173    
1.00000016173    1.00000016275    1.00000069819    1.00020233879    0.974754685033    
0.974954171025    1.00040375273    1.00020233879    1.00020180395    1.00020180293    
1.00020180293    1.00020180395    1.00020233879    1.00040375273    0.974954171025    
0.979054263538    0.974953232762    0.974754683996    0.974754183095    0.974754182144    
0.974754182144    0.974754183095    0.974754683996    0.974953232762    0.979054263538    

1.74826048744    1.50310811328    1.50231539106    1.50231366396    1.50231366065    
1.50231366065    1.50231366396    1.50231539106    1.50310811328    1.74826048744    
1.50311030208    1.00251389652    1.00126405745    1.00126147754    1.00126147258    
1.00126147258    1.00126147754    1.00126405745    1.00251389652    1.50311030208    
1.50231539382    1.00126405745    1.00001282096    1.00001023778    1.00001023281    
1.00001023281    1.00001023778    1.00001282096    1.00126405745    1.50231539382    
1.50231366397    1.00126147754    1.00001023778    1.00000765459    1.00000764962    
1.00000764962    1.00000765459    1.00001023778    1.00126147754    1.50231366397    
1.50231366065    1.00126147258    1.00001023281    1.00000764962    1.00000764464    
1.00000764464    1.00000764962    1.00001023281    1.00126147258    1.50231366065    
1.50231366065    1.00126147258    1.00001023281    1.00000764962    1.00000764464    
1.00000764464    1.00000764962    1.00001023281    1.00126147258    1.50231366065    
1.50231366397    1.00126147754    1.00001023778    1.00000765459    1.00000764962    
1.00000764962    1.00000765459    1.00001023778    1.00126147754    1.50231366397    
1.50231539382    1.00126405745    1.00001282096    1.00001023778    1.00001023281    
1.00001023281    1.00001023778    1.00001282096    1.00126405745    1.50231539382    
1.50311030208    1.00251389652    1.00126405745    1.00126147754    1.00126147258    
1.00126147258    1.00126147754    1.00126405745    1.00251389652    1.50311030208    
1.74826048744    1.50310811328    1.50231539106    1.50231366396    1.50231366065    
1.50231366065    1.50231366396    1.50231539106    1.50310811328    1.74826048744    

3.5990955716e-07    3.19536956766e-07    3.19453145352e-07    3.19452980848e-07    3.19452980529e-07    
3.19452980529e-07    3.19452980848e-07    3.19453145352e-07    3.19536956766e-07    3.5990955716e-07    
3.19537084578e-07    2.25412037356e-07    2.25221111948e-07    2.25220739443e-07    2.25220738724e-07    
2.25220738724e-07    2.25220739443e-07    2.25221111948e-07    2.25412037356e-07    3.19537084578e-07    
3.19453145554e-07    2.25221111948e-07    2.25029858238e-07    2.25029484994e-07    2.25029484273e-07    
2.25029484273e-07    2.25029484994e-07    2.25029858238e-07    2.25221111948e-07    3.19453145554e-07    
3.19452980849e-07    2.25220739443e-07    2.25029484994e-07    2.25029111747e-07    2.25029111027e-07    
2.25029111027e-07    2.25029111747e-07    2.25029484994e-07    2.25220739443e-07    3.19452980849e-07    
3.19452980529e-07    2.25220738724e-07    2.25029484273e-07    2.25029111027e-07    2.25029110307e-07    
2.25029110307e-07    2.25029111027e-07    2.25029484273e-07    2.25220738724e-07    3.19452980529e-07    
3.19452980529e-07    2.25220738724e-07    2.25029484273e-07    2.25029111027e-07    2.25029110307e-07    
2.25029110307e-07    2.25029111027e-07    2.25029484273e-07    2.25220738724e-07    3.19452980529e-07    
3.19452980849e-07    2.25220739443e-07    2.25029484994e-07    2.25029111747e-07    2.25029111027e-07    
2.25029111027e-07    2.25029111747e-07    2.25029484994e-07    2.25220739443e-07    3.19452980849e-07    
3.19453145554e-07    2.25221111948e-07    2.25029858238e-07    2.25029484994e-07    2.25029484273e-07    
2.25029484273e-07    2.25029484994e-07    2.25029858238e-07    2.25221111948e-07    3.19453145554e-07    
3.19537084578e-07    2.25412037356e-07    2.25221111948e-07    2.25220739443e-07    2.25220738724e-07    
2.25220738724e-07    2.25220739443e-07    2.25221111948e-07    2.25412037356e-07    3.19537084578e-07    
3.5990955716e-07    3.19536956766e-07    3.19453145352e-07    3.19452980848e-07    3.19452980529e-07    
3.19452980529e-07    3.19452980848e-07    3.19453145352e-07    3.19536956766e-07    3.5990955716e-07    

1.78566250365    1.54172329786    1.54122407999    1.54122310016    1.54122309826    
1.54122309826    1.54122310016    1.54122407999    1.54172329786    1.78566250365    
1.54172405919    1.00210929217    1.00106150388    1.00105945979    1.00105945585    
1.00105945585    1.00105945979    1.00106150388    1.00210929217    1.54172405919    
1.54122408119    1.00106150388    1.00001212276    1.00001007502    1.00001007107    
1.00001007107    1.00001007502    1.00001212276    1.00106150388    1.54122408119    
1.54122310016    1.00105945979    1.00001007502    1.00000802728    1.00000802333    
1.00000802333    1.00000802728    1.00001007502    1.00105945979    1.54122310016    
1.54122309826    1.00105945585    1.00001007107    1.00000802333    1.00000801938    
1.00000801938    1.00000802333    1.00001007107    1.00105945585    1.54122309826    
1.54122309826    1.00105945585    1.00001007107    1.00000802333    1.00000801938    
1.00000801938    1.00000802333    1.00001007107    1.00105945585    1.54122309826    
1.54122310016    1.00105945979    1.00001007502    1.00000802728    1.00000802333    
1.00000802333    1.00000802728    1.00001007502    1.00105945979    1.54122310016    
1.54122408119    1.00106150388    1.00001212276    1.00001007502    1.00001007107    
1.00001007107    1.00001007502    1.00001212276    1.00106150388    1.54122408119    
1.54172405919    1.00210929217    1.00106150388    1.00105945979    1.00105945585    
1.00105945585    1.00105945979    1.00106150388    1.00210929217    1.54172405919    
1.78566250365    1.54172329786    1.54122407999    1.54122310016    1.54122309826    
1.54122309826    1.54122310016    1.54122407999    1.54172329786    1.78566250365    

1354.89946048    1312.0894127    1311.74148852    1311.74065601    1311.74065442    
1311.74065442    1311.74065601    1311.74148852    1312.0894127    1354.89946048    
1312.09079852    1240.53094995    1240.03469098    1240.0335468    1240.03354461    
1240.03354461    1240.0335468    1240.03469098    1240.53094995    1312.09079852    
1311.74149011    1240.03469098    1239.53766618    1239.53652022    1239.53651803    
1239.53651803    1239.53652022    1239.53766618    1240.03469098    1311.74149011    
1311.74065601    1240.0335468    1239.53652022    1239.53537426    1239.53537206    
1239.53537206    1239.53537426    1239.53652022    1240.0335468    1311.74065601    
1311.74065442    1240.03354461    1239.53651803    1239.53537206    1239.53536987    
1239.53536987    1239.53537206    1239.53651803    1240.03354461    1311.74065442    
1311.74065442    1240.03354461    1239.53651803    1239.53537206    1239.53536987    
1239.53536987    1239.53537206    1239.53651803    1240.03354461    1311.74065442    
1311.74065601    1240.0335468    1239.53652022    1239.53537426    1239.53537206    
1239.53537206    1239.53537426    1239.53652022    1240.0335468    1311.74065601    
1311.74149011    1240.03469098    1239.53766618    1239.53652022    1239.53651803    
1239.53651803    1239.53652022    1239.53766618    1240.03469098    1311.74149011    
1312.09079852    1240.53094995    1240.03469098    1240.0335468    1240.03354461    
1240.03354461    1240.0335468    1240.03469098    1240.53094995    1312.09079852    
1354.89946048    1312.0894127    1311.74148852    1311.74065601    1311.74065442    
1311.74065442    1311.74065601    1311.74148852    1312.0894127    1354.89946048    

2     4     3     1     4     2     5     6     6     5     7     8     8     7     9     10     10     9     11     12     12     11     13     14     14     13     15     16     16     15     17     18     18     17     19     20     20     19     21     22     3     4     24     23     4     6     25     24     6     8     26     25     8     10     27     26     10     12     28     27     12     14     29     28     14     16     30     29     16     18     31     30     18     20     32     31     20     22     33     32     23     24     35     34     24     25     36     35     25     26     37     36     26     27     38     37     27     28     39     38     28     29     40     39     29     30     41     40     30     31     42     41     31     32     43     42     32     33     44     43     34     35     46     45     35     36     47     46     36     37     48     47     37     38     49     48     38     39     50     49     39     40     51     50     40     41     52     51     41     42     53     52     42     43     54     53     43     44     55     54     45     46     57     56     46     47     58     57     47     48     59     58     48     49     60     59     49     50     61     60     50     51     62     61     51     52     63     62     52     53     64     63     53     54     65     64     54     55     66     65     56     57     68     67     57     58     69     68     58     59     70     69     59     60     71     70     60     61     72     71     61     62     73     72     62     63     74     73     63     64     75     74     64     65     76     75     65     66     77     76     67     68     79     78     68     69     80     79     69     70     81     80     70     71     82     81     71     72     83     82     72     73     84     83     73     74     85     84     74     75     86     85     75     76     87     86     76     77     88     87     78     79     90     89     79     80     91     90     80     81     92     91     81     82     93     92     82     83     94     93     83     84     95     94     84     85     96     95     85     86     97     96     86     87     98     97     87     88     99     98     89     90     101     100     90     91     102     101     91     92     103     102     92     93     104     103     93     94     105     104     94     95     106     105     95     96     107     106     96     97     108     107     97     98     109     108     98     99     110     109     100     101     111     112     101     102     113     111     102     103     114     113     103     104     115     114     104     105     116     115     105     106     117     116     106     107     118     117     107     108     119     118     108     109     120     119     109     110     121     120     

