title = " tecplot file for process Mesh " 
variables = "x",  "y", "z", "cell_type" 
zone N = 801 E = 1032 DATAPACKING = BLOCK,  VARLOCATION = ([4]=CELLCENTERED), ZONETYPE=FEBRICK 
1.000000e-01     
1.000000e-01     1.000000e-01     1.000000e-01     5.000000e-02     5.000000e-02     
5.000000e-02     5.000000e-02     5.000000e-02     5.000000e-02     5.000000e-02     
5.000000e-02     5.000000e-02     5.000000e-02     5.000000e-02     5.000000e-02     
5.000000e-02     5.000000e-02     5.000000e-02     5.000000e-02     5.000000e-02     
5.000000e-02     5.000000e-02     5.000000e-02     5.000000e-02     0.000000e+00     
0.000000e+00     0.000000e+00     0.000000e+00     0.000000e+00     0.000000e+00     
0.000000e+00     0.000000e+00     0.000000e+00     0.000000e+00     0.000000e+00     
0.000000e+00     0.000000e+00     0.000000e+00     0.000000e+00     0.000000e+00     
0.000000e+00     0.000000e+00     0.000000e+00     0.000000e+00     0.000000e+00     
0.000000e+00     0.000000e+00     0.000000e+00     0.000000e+00     0.000000e+00     
0.000000e+00     0.000000e+00     0.000000e+00     0.000000e+00     0.000000e+00     
0.000000e+00     0.000000e+00     0.000000e+00     0.000000e+00     0.000000e+00     
0.000000e+00     0.000000e+00     -5.000000e-02     -5.000000e-02     -5.000000e-02     
-5.000000e-02     -5.000000e-02     -5.000000e-02     -5.000000e-02     -5.000000e-02     
-5.000000e-02     -5.000000e-02     -5.000000e-02     -5.000000e-02     -5.000000e-02     
-5.000000e-02     -5.000000e-02     -5.000000e-02     -5.000000e-02     -5.000000e-02     
-5.000000e-02     -5.000000e-02     -5.000000e-02     -5.000000e-02     -5.000000e-02     
-5.000000e-02     -5.000000e-02     -5.000000e-02     -5.000000e-02     -5.000000e-02     
-5.000000e-02     -5.000000e-02     -5.000000e-02     -5.000000e-02     -5.000000e-02     
-5.000000e-02     -5.000000e-02     -5.000000e-02     -5.000000e-02     -5.000000e-02     
-5.000000e-02     -5.000000e-02     -5.000000e-02     -5.000000e-02     -5.000000e-02     
-5.000000e-02     -5.000000e-02     -5.000000e-02     -5.000000e-02     -5.000000e-02     
-5.000000e-02     -5.000000e-02     -5.000000e-02     -5.000000e-02     -5.000000e-02     
-5.000000e-02     -5.000000e-02     -5.000000e-02     -5.000000e-02     -5.000000e-02     
-5.000000e-02     -5.000000e-02     -5.000000e-02     -5.000000e-02     -5.000000e-02     
-5.000000e-02     -5.000000e-02     -5.000000e-02     -5.000000e-02     -5.000000e-02     
-5.000000e-02     -5.000000e-02     -5.000000e-02     -5.000000e-02     -5.000000e-02     
-5.000000e-02     -5.000000e-02     -5.000000e-02     -5.000000e-02     -5.000000e-02     
-5.000000e-02     -5.000000e-02     -1.000000e-01     -1.000000e-01     -1.000000e-01     
-1.000000e-01     -1.000000e-01     -1.000000e-01     -1.000000e-01     -1.000000e-01     
-1.000000e-01     -1.000000e-01     -1.000000e-01     -1.000000e-01     -1.000000e-01     
-1.000000e-01     -1.000000e-01     -1.000000e-01     -1.000000e-01     -1.000000e-01     
-1.000000e-01     -1.000000e-01     -1.000000e-01     -1.000000e-01     -1.000000e-01     
-1.000000e-01     -1.000000e-01     -1.000000e-01     -1.000000e-01     -1.000000e-01     
-1.000000e-01     -1.000000e-01     -1.000000e-01     -1.000000e-01     -1.000000e-01     
-1.000000e-01     -1.000000e-01     -1.000000e-01     -1.000000e-01     -1.000000e-01     
-1.000000e-01     -1.000000e-01     -1.000000e-01     -1.000000e-01     -1.000000e-01     
-1.000000e-01     -1.000000e-01     -1.000000e-01     -1.000000e-01     -1.000000e-01     
-1.000000e-01     -1.000000e-01     -1.000000e-01     -1.000000e-01     -1.000000e-01     
-1.000000e-01     -1.000000e-01     -1.000000e-01     -1.000000e-01     -1.000000e-01     
-1.000000e-01     -1.000000e-01     -1.000000e-01     -1.000000e-01     -1.000000e-01     
-1.000000e-01     -1.000000e-01     -1.000000e-01     -1.000000e-01     -1.000000e-01     
-1.000000e-01     -1.000000e-01     -1.000000e-01     -1.000000e-01     -1.000000e-01     
-1.000000e-01     -1.000000e-01     -1.000000e-01     -1.000000e-01     -1.000000e-01     
-1.000000e-01     -1.000000e-01     -1.000000e-01     -1.000000e-01     -1.000000e-01     
-1.000000e-01     -1.000000e-01     -1.000000e-01     -1.000000e-01     -1.000000e-01     
-1.000000e-01     -1.000000e-01     -1.000000e-01     -1.000000e-01     -1.000000e-01     
-1.500000e-01     -1.500000e-01     -1.500000e-01     -1.500000e-01     -1.500000e-01     
-1.500000e-01     -1.500000e-01     -1.500000e-01     -1.500000e-01     -1.500000e-01     
-1.500000e-01     -1.500000e-01     -1.500000e-01     -1.500000e-01     -1.500000e-01     
-1.500000e-01     -1.500000e-01     -1.500000e-01     -1.500000e-01     -1.500000e-01     
-1.500000e-01     -1.500000e-01     -1.500000e-01     -1.500000e-01     -1.500000e-01     
-1.500000e-01     -1.500000e-01     -1.500000e-01     -1.500000e-01     -1.500000e-01     
-1.500000e-01     -1.500000e-01     -1.500000e-01     -1.500000e-01     -1.500000e-01     
-1.500000e-01     -1.500000e-01     -1.500000e-01     -1.500000e-01     -1.500000e-01     
-1.500000e-01     -1.500000e-01     -1.500000e-01     -1.500000e-01     -1.500000e-01     
-1.500000e-01     -1.500000e-01     -1.500000e-01     -1.500000e-01     -1.500000e-01     
-1.500000e-01     -1.500000e-01     -1.500000e-01     -1.500000e-01     -1.500000e-01     
-1.500000e-01     -1.500000e-01     -1.500000e-01     -1.500000e-01     -1.500000e-01     
-1.500000e-01     -1.500000e-01     -1.500000e-01     -1.500000e-01     -1.500000e-01     
-1.500000e-01     -1.500000e-01     -1.500000e-01     -1.500000e-01     -1.500000e-01     
-1.500000e-01     -1.500000e-01     -1.500000e-01     -1.500000e-01     -1.500000e-01     
-1.500000e-01     -1.500000e-01     -1.500000e-01     -1.500000e-01     -1.500000e-01     
-1.500000e-01     -1.500000e-01     -1.500000e-01     -1.500000e-01     -1.500000e-01     
-1.500000e-01     -1.500000e-01     -1.500000e-01     -1.500000e-01     -1.500000e-01     
-1.500000e-01     -1.500000e-01     -1.500000e-01     -1.500000e-01     -1.500000e-01     
-1.500000e-01     -2.000000e-01     -2.000000e-01     -2.000000e-01     -2.000000e-01     
-2.000000e-01     -2.000000e-01     -2.000000e-01     -2.000000e-01     -2.000000e-01     
-2.000000e-01     -2.000000e-01     -2.000000e-01     -2.000000e-01     -2.000000e-01     
-2.000000e-01     -2.000000e-01     -2.000000e-01     -2.000000e-01     -2.000000e-01     
-2.000000e-01     -2.000000e-01     -2.000000e-01     -2.000000e-01     -2.000000e-01     
-2.000000e-01     -2.000000e-01     -2.000000e-01     -2.000000e-01     -2.000000e-01     
-2.000000e-01     -2.000000e-01     -2.000000e-01     -2.000000e-01     -2.000000e-01     
-2.000000e-01     -2.000000e-01     -2.000000e-01     -2.000000e-01     -2.000000e-01     
-2.000000e-01     -2.000000e-01     -2.000000e-01     -2.000000e-01     -2.000000e-01     
-2.000000e-01     -2.000000e-01     -2.000000e-01     -2.000000e-01     -2.000000e-01     
-2.000000e-01     -2.000000e-01     -2.000000e-01     -2.000000e-01     -2.000000e-01     
-2.000000e-01     -2.000000e-01     -2.000000e-01     -2.000000e-01     -2.000000e-01     
-2.000000e-01     -2.000000e-01     -2.000000e-01     -2.000000e-01     -2.000000e-01     
-2.000000e-01     -2.000000e-01     -2.000000e-01     -2.000000e-01     -2.000000e-01     
-2.000000e-01     -2.000000e-01     -2.000000e-01     -2.000000e-01     -2.000000e-01     
-2.000000e-01     -2.000000e-01     -2.000000e-01     -2.000000e-01     -2.000000e-01     
-2.000000e-01     -2.000000e-01     -2.000000e-01     -2.000000e-01     -2.000000e-01     
-2.000000e-01     -2.000000e-01     -2.000000e-01     -2.000000e-01     -2.000000e-01     
-2.000000e-01     -2.000000e-01     -2.000000e-01     -2.000000e-01     -2.500000e-01     
-2.500000e-01     -2.500000e-01     -2.500000e-01     -2.500000e-01     -2.500000e-01     
-2.500000e-01     -2.500000e-01     -2.500000e-01     -2.500000e-01     -2.500000e-01     
-2.500000e-01     -2.500000e-01     -2.500000e-01     -2.500000e-01     -2.500000e-01     
-2.500000e-01     -2.500000e-01     -2.500000e-01     -2.500000e-01     -2.500000e-01     
-2.500000e-01     -2.500000e-01     -2.500000e-01     -2.500000e-01     -2.500000e-01     
-2.500000e-01     -2.500000e-01     -2.500000e-01     -2.500000e-01     -2.500000e-01     
-2.500000e-01     -2.500000e-01     -2.500000e-01     -2.500000e-01     -2.500000e-01     
-2.500000e-01     -2.500000e-01     -2.500000e-01     -2.500000e-01     -2.500000e-01     
-2.500000e-01     -2.500000e-01     -2.500000e-01     -2.500000e-01     -2.500000e-01     
-2.500000e-01     -2.500000e-01     -2.500000e-01     -2.500000e-01     -2.500000e-01     
-2.500000e-01     -2.500000e-01     -2.500000e-01     -2.500000e-01     -2.500000e-01     
-2.500000e-01     -2.500000e-01     -2.500000e-01     -2.500000e-01     -2.500000e-01     
-2.500000e-01     -2.500000e-01     -2.500000e-01     -2.500000e-01     -2.500000e-01     
-2.500000e-01     -2.500000e-01     -2.500000e-01     -2.500000e-01     -2.500000e-01     
-2.500000e-01     -2.500000e-01     -2.500000e-01     -2.500000e-01     -2.500000e-01     
-2.500000e-01     -2.500000e-01     -2.500000e-01     -2.500000e-01     -2.500000e-01     
-2.500000e-01     -2.500000e-01     -2.500000e-01     -2.500000e-01     -3.000000e-01     
-3.000000e-01     -3.000000e-01     -3.000000e-01     -3.000000e-01     -3.000000e-01     
-3.000000e-01     -3.000000e-01     -3.000000e-01     -3.000000e-01     -3.000000e-01     
-3.000000e-01     -3.000000e-01     -3.000000e-01     -3.000000e-01     -3.000000e-01     
-3.000000e-01     -3.000000e-01     -3.000000e-01     -3.000000e-01     -3.000000e-01     
-3.000000e-01     -3.000000e-01     -3.000000e-01     -3.000000e-01     -3.000000e-01     
-3.000000e-01     -3.000000e-01     -3.000000e-01     -3.000000e-01     -3.000000e-01     
-3.000000e-01     -3.000000e-01     -3.000000e-01     -3.000000e-01     -3.000000e-01     
-3.000000e-01     -3.000000e-01     -3.000000e-01     -3.000000e-01     -3.000000e-01     
-3.000000e-01     -3.000000e-01     -3.000000e-01     -3.000000e-01     -3.000000e-01     
-3.000000e-01     -3.000000e-01     -3.000000e-01     -3.000000e-01     -3.000000e-01     
-3.000000e-01     -3.000000e-01     -3.000000e-01     -3.000000e-01     -3.000000e-01     
-3.000000e-01     -3.000000e-01     -3.000000e-01     -3.000000e-01     -3.000000e-01     
-3.000000e-01     -3.000000e-01     -3.000000e-01     -3.000000e-01     -3.000000e-01     
-3.000000e-01     -3.000000e-01     -3.000000e-01     -3.000000e-01     -3.000000e-01     
-3.000000e-01     -3.000000e-01     -3.000000e-01     -3.000000e-01     -3.000000e-01     
-3.500000e-01     -3.500000e-01     -3.500000e-01     -3.500000e-01     -3.500000e-01     
-3.500000e-01     -3.500000e-01     -3.500000e-01     -3.500000e-01     -3.500000e-01     
-3.500000e-01     -3.500000e-01     -3.500000e-01     -3.500000e-01     -3.500000e-01     
-3.500000e-01     -3.500000e-01     -3.500000e-01     -3.500000e-01     -3.500000e-01     
-3.500000e-01     -3.500000e-01     -3.500000e-01     -3.500000e-01     -3.500000e-01     
-3.500000e-01     -3.500000e-01     -3.500000e-01     -3.500000e-01     -3.500000e-01     
-3.500000e-01     -3.500000e-01     -3.500000e-01     -3.500000e-01     -3.500000e-01     
-3.500000e-01     -3.500000e-01     -3.500000e-01     -3.500000e-01     -3.500000e-01     
-3.500000e-01     -3.500000e-01     -3.500000e-01     -3.500000e-01     -3.500000e-01     
-3.500000e-01     -3.500000e-01     -3.500000e-01     -3.500000e-01     -3.500000e-01     
-3.500000e-01     -3.500000e-01     -3.500000e-01     -3.500000e-01     -3.500000e-01     
-4.000000e-01     -4.000000e-01     -4.000000e-01     -4.000000e-01     -4.000000e-01     
-4.000000e-01     -4.000000e-01     -4.000000e-01     -4.000000e-01     -4.000000e-01     
-4.000000e-01     -4.000000e-01     -4.000000e-01     -4.000000e-01     -4.000000e-01     
-4.000000e-01     -4.000000e-01     -4.000000e-01     -4.000000e-01     -4.000000e-01     
-4.000000e-01     -4.000000e-01     -4.000000e-01     -4.000000e-01     -4.000000e-01     
-4.000000e-01     -4.000000e-01     -4.000000e-01     -4.000000e-01     -4.000000e-01     
-4.000000e-01     -4.000000e-01     -4.000000e-01     -4.000000e-01     -4.000000e-01     
-4.000000e-01     -4.000000e-01     -4.000000e-01     -4.000000e-01     -4.000000e-01     
-4.000000e-01     -4.000000e-01     -4.000000e-01     -4.000000e-01     -4.000000e-01     
-4.000000e-01     -4.000000e-01     -4.000000e-01     -4.000000e-01     -4.000000e-01     
-4.000000e-01     -4.000000e-01     -4.000000e-01     -4.000000e-01     -4.500000e-01     
-4.500000e-01     -4.500000e-01     -4.500000e-01     -4.500000e-01     -4.500000e-01     
-4.500000e-01     -4.500000e-01     -4.500000e-01     -4.500000e-01     -4.500000e-01     
-4.500000e-01     -4.500000e-01     -4.500000e-01     -4.500000e-01     -4.500000e-01     
-4.500000e-01     -4.500000e-01     -4.500000e-01     -4.500000e-01     -4.500000e-01     
-4.500000e-01     -4.500000e-01     -4.500000e-01     -4.500000e-01     -4.500000e-01     
-4.500000e-01     -4.500000e-01     -4.500000e-01     -4.500000e-01     -4.500000e-01     
-4.500000e-01     -4.500000e-01     -4.500000e-01     -4.500000e-01     -4.500000e-01     
-4.500000e-01     -4.500000e-01     -4.500000e-01     -4.500000e-01     -4.500000e-01     
-4.500000e-01     -4.500000e-01     -4.500000e-01     -4.500000e-01     -4.500000e-01     
-4.500000e-01     -4.500000e-01     -4.500000e-01     -4.500000e-01     -4.500000e-01     
-4.500000e-01     -4.500000e-01     -5.000000e-01     -5.000000e-01     -5.000000e-01     
-5.000000e-01     -5.000000e-01     -5.000000e-01     -5.000000e-01     -5.000000e-01     
-5.000000e-01     -5.000000e-01     -5.000000e-01     -5.000000e-01     -5.000000e-01     
-5.000000e-01     -5.000000e-01     -5.000000e-01     -5.000000e-01     -5.000000e-01     
-5.000000e-01     -5.000000e-01     -5.000000e-01     -5.000000e-01     -5.000000e-01     
-5.000000e-01     -5.000000e-01     -5.000000e-01     -5.000000e-01     -5.000000e-01     
-5.000000e-01     -5.000000e-01     -5.000000e-01     -5.000000e-01     -5.000000e-01     
-5.000000e-01     -5.000000e-01     -5.000000e-01     -5.000000e-01     -5.000000e-01     
-5.000000e-01     -5.000000e-01     -5.000000e-01     -5.000000e-01     -5.000000e-01     
-5.000000e-01     -5.000000e-01     -5.000000e-01     -5.000000e-01     -5.000000e-01     
-5.000000e-01     -5.000000e-01     -5.000000e-01     -5.000000e-01     -5.000000e-01     

-1.000000e-01     
-5.000000e-02     -5.000000e-02     -1.000000e-01     -1.000000e-01     -5.000000e-02     
-5.000000e-02     -1.000000e-01     -1.908196e-18     0.000000e+00     -1.000000e-01     
-5.000000e-02     -1.040834e-18     -5.000000e-02     -1.000000e-01     1.387779e-18     
-1.000000e-01     -5.000000e-02     2.775558e-18     5.000000e-02     5.000000e-02     
-1.000000e-01     -5.000000e-02     6.938894e-19     5.000000e-02     -1.000000e-01     
-1.000000e-01     -5.000000e-02     -5.000000e-02     0.000000e+00     0.000000e+00     
5.000000e-02     5.000000e-02     -1.000000e-01     -5.000000e-02     0.000000e+00     
5.000000e-02     1.000000e-01     1.000000e-01     -1.000000e-01     -5.000000e-02     
0.000000e+00     5.000000e-02     1.000000e-01     -1.000000e-01     -5.000000e-02     
0.000000e+00     5.000000e-02     -1.000000e-01     -5.000000e-02     0.000000e+00     
5.000000e-02     -1.000000e-01     -5.000000e-02     0.000000e+00     -1.000000e-01     
-5.000000e-02     0.000000e+00     -1.000000e-01     -5.000000e-02     0.000000e+00     
-5.000000e-02     0.000000e+00     -1.000000e-01     -1.000000e-01     -1.500000e-01     
-1.500000e-01     -5.000000e-02     -5.000000e-02     0.000000e+00     1.908196e-18     
5.000000e-02     5.000000e-02     1.000000e-01     -2.500000e-01     -2.000000e-01     
-2.000000e-01     -2.500000e-01     -1.500000e-01     -1.000000e-01     -5.000000e-02     
1.040834e-18     5.000000e-02     1.000000e-01     -2.500000e-01     -2.000000e-01     
-1.500000e-01     -1.000000e-01     -5.000000e-02     -1.387779e-18     5.000000e-02     
1.000000e-01     -3.000000e-01     -2.500000e-01     -3.000000e-01     -2.000000e-01     
-1.500000e-01     -1.000000e-01     -5.000000e-02     -2.775558e-18     5.000000e-02     
1.000000e-01     -3.500000e-01     -3.000000e-01     -3.500000e-01     -2.500000e-01     
-2.000000e-01     -1.000000e-01     -5.000000e-02     -6.938894e-19     5.000000e-02     
-3.500000e-01     -3.000000e-01     -2.500000e-01     -2.000000e-01     -1.000000e-01     
-5.000000e-02     -1.387779e-18     -3.000000e-01     -2.500000e-01     -2.000000e-01     
-1.500000e-01     -1.500000e-01     -1.000000e-01     -5.000000e-02     2.775558e-18     
-3.500000e-01     -3.000000e-01     -3.500000e-01     -2.500000e-01     -2.000000e-01     
-1.500000e-01     -1.000000e-01     -5.000000e-02     0.000000e+00     -3.500000e-01     
-3.000000e-01     -2.500000e-01     -2.000000e-01     -1.500000e-01     -1.000000e-01     
-5.000000e-02     -1.387779e-18     -2.000000e-01     -2.500000e-01     -1.500000e-01     
-1.500000e-01     -1.000000e-01     -1.000000e-01     -5.000000e-02     -5.000000e-02     
0.000000e+00     3.816392e-18     5.000000e-02     5.000000e-02     1.000000e-01     
-2.500000e-01     -2.000000e-01     -1.500000e-01     -1.000000e-01     -5.000000e-02     
2.081668e-18     5.000000e-02     1.000000e-01     -2.500000e-01     -3.000000e-01     
-2.000000e-01     -1.500000e-01     -1.000000e-01     -5.000000e-02     -2.775558e-18     
5.000000e-02     1.000000e-01     -3.000000e-01     -3.500000e-01     -3.500000e-01     
-2.500000e-01     -2.000000e-01     -1.500000e-01     -1.000000e-01     -5.000000e-02     
-5.551115e-18     5.000000e-02     1.000000e-01     -3.500000e-01     -3.000000e-01     
-2.500000e-01     -2.000000e-01     -1.500000e-01     -1.000000e-01     -5.000000e-02     
-1.387779e-18     5.000000e-02     1.000000e-01     -3.500000e-01     -3.000000e-01     
-2.500000e-01     -2.000000e-01     -1.500000e-01     -1.000000e-01     -5.000000e-02     
-2.775558e-18     -3.000000e-01     -3.500000e-01     -2.500000e-01     -2.000000e-01     
-1.500000e-01     -1.000000e-01     -5.000000e-02     5.551115e-18     -3.500000e-01     
-3.000000e-01     -2.500000e-01     -2.000000e-01     -1.500000e-01     -1.000000e-01     
-5.000000e-02     0.000000e+00     5.000000e-02     5.000000e-02     -3.500000e-01     
-3.000000e-01     -2.500000e-01     -2.000000e-01     -1.500000e-01     -1.000000e-01     
-5.000000e-02     -2.775558e-18     5.000000e-02     -2.500000e-01     -2.000000e-01     
-1.500000e-01     -1.000000e-01     -5.000000e-02     0.000000e+00     5.000000e-02     
-2.000000e-01     -2.500000e-01     -1.500000e-01     -1.500000e-01     -2.000000e-01     
-1.000000e-01     -1.000000e-01     -5.000000e-02     -5.000000e-02     2.775558e-17     
3.348016e-17     5.000000e-02     5.000000e-02     -2.500000e-01     -2.000000e-01     
-1.500000e-01     -1.000000e-01     -5.000000e-02     3.087808e-17     5.000000e-02     
-3.000000e-01     -3.500000e-01     -2.500000e-01     -2.000000e-01     -1.500000e-01     
-1.000000e-01     -5.000000e-02     2.359224e-17     5.000000e-02     1.000000e-01     
-3.500000e-01     -3.000000e-01     -2.500000e-01     -2.000000e-01     -1.500000e-01     
-1.000000e-01     -5.000000e-02     1.942890e-17     5.000000e-02     1.000000e-01     
1.500000e-01     1.500000e-01     -3.500000e-01     -3.000000e-01     -2.500000e-01     
-2.000000e-01     -1.500000e-01     -1.000000e-01     -5.000000e-02     -2.081668e-18     
5.000000e-02     1.000000e-01     -3.500000e-01     -3.000000e-01     -2.500000e-01     
-2.000000e-01     -1.500000e-01     -1.000000e-01     -5.000000e-02     -4.163336e-18     
-3.000000e-01     -2.500000e-01     -2.000000e-01     -1.500000e-01     -1.000000e-01     
-5.000000e-02     8.326673e-18     5.000000e-02     -3.000000e-01     -2.500000e-01     
-2.000000e-01     -1.500000e-01     -1.000000e-01     -5.000000e-02     0.000000e+00     
5.000000e-02     -3.000000e-01     -2.500000e-01     -2.000000e-01     -1.500000e-01     
-1.000000e-01     -5.000000e-02     -4.163336e-18     5.000000e-02     -2.500000e-01     
-3.000000e-01     -2.000000e-01     -1.500000e-01     -1.000000e-01     -5.000000e-02     
0.000000e+00     5.000000e-02     -3.000000e-01     -2.500000e-01     -2.000000e-01     
-1.500000e-01     -2.000000e-01     -2.000000e-01     -1.500000e-01     -1.500000e-01     
-1.000000e-01     -1.000000e-01     -5.000000e-02     -5.000000e-02     0.000000e+00     
7.632783e-18     5.000000e-02     5.000000e-02     -2.000000e-01     -2.500000e-01     
-1.500000e-01     -1.000000e-01     -5.000000e-02     4.163336e-18     5.000000e-02     
-3.000000e-01     -3.500000e-01     -2.500000e-01     -2.000000e-01     -1.500000e-01     
-1.000000e-01     -5.000000e-02     -5.551115e-18     5.000000e-02     1.000000e-01     
1.500000e-01     -3.500000e-01     -3.000000e-01     -2.500000e-01     -2.000000e-01     
-1.500000e-01     -1.000000e-01     -5.000000e-02     -1.110223e-17     5.000000e-02     
1.000000e-01     1.500000e-01     -3.500000e-01     -3.000000e-01     -2.500000e-01     
-2.000000e-01     -1.500000e-01     -1.000000e-01     -5.000000e-02     -2.775558e-18     
5.000000e-02     1.000000e-01     -3.500000e-01     -3.000000e-01     -2.500000e-01     
-2.000000e-01     -1.500000e-01     -1.000000e-01     -5.000000e-02     -5.551115e-18     
-3.000000e-01     -2.500000e-01     -2.000000e-01     -1.500000e-01     -1.000000e-01     
-5.000000e-02     1.110223e-17     5.000000e-02     -3.000000e-01     -2.500000e-01     
-2.000000e-01     -1.500000e-01     -1.000000e-01     -5.000000e-02     0.000000e+00     
5.000000e-02     -3.000000e-01     -2.500000e-01     -2.000000e-01     -1.500000e-01     
-1.000000e-01     -5.000000e-02     -5.551115e-18     5.000000e-02     -3.000000e-01     
-2.500000e-01     -2.000000e-01     -1.500000e-01     -1.000000e-01     -5.000000e-02     
-3.000000e-01     -2.500000e-01     -2.000000e-01     -1.500000e-01     -1.500000e-01     
-1.500000e-01     -1.000000e-01     -1.000000e-01     -5.000000e-02     -5.000000e-02     
0.000000e+00     9.540979e-18     5.000000e-02     5.000000e-02     -1.500000e-01     
-2.000000e-01     -1.000000e-01     -5.000000e-02     5.204170e-18     5.000000e-02     
-3.000000e-01     -3.500000e-01     -2.500000e-01     -2.000000e-01     -1.500000e-01     
-1.000000e-01     -5.000000e-02     -6.938894e-18     5.000000e-02     -3.500000e-01     
-3.000000e-01     -2.500000e-01     -2.000000e-01     -1.500000e-01     -1.000000e-01     
-5.000000e-02     -1.387779e-17     5.000000e-02     -3.500000e-01     -3.000000e-01     
-2.500000e-01     -2.000000e-01     -1.500000e-01     -1.000000e-01     -5.000000e-02     
-3.469447e-18     -3.000000e-01     -2.500000e-01     -2.000000e-01     -1.500000e-01     
-1.000000e-01     -5.000000e-02     -6.938894e-18     5.000000e-02     5.000000e-02     
-3.000000e-01     -2.500000e-01     -2.000000e-01     -1.500000e-01     -1.000000e-01     
-5.000000e-02     1.387779e-17     5.000000e-02     -3.000000e-01     -2.500000e-01     
-2.000000e-01     -1.500000e-01     -1.000000e-01     -5.000000e-02     0.000000e+00     
5.000000e-02     -3.000000e-01     -2.500000e-01     -2.000000e-01     -1.500000e-01     
-1.000000e-01     -5.000000e-02     -6.938894e-18     5.000000e-02     -3.000000e-01     
-2.500000e-01     -2.000000e-01     -1.500000e-01     -1.000000e-01     -5.000000e-02     
-3.000000e-01     -2.500000e-01     -2.000000e-01     -1.500000e-01     -1.500000e-01     
-1.500000e-01     -2.000000e-01     -2.000000e-01     -1.000000e-01     -1.000000e-01     
-5.000000e-02     -5.000000e-02     0.000000e+00     1.144917e-17     5.000000e-02     
5.000000e-02     -1.500000e-01     -2.000000e-01     -1.000000e-01     -5.000000e-02     
6.245005e-18     5.000000e-02     -2.500000e-01     -3.000000e-01     -2.000000e-01     
-1.500000e-01     -1.000000e-01     -5.000000e-02     -8.326673e-18     5.000000e-02     
-3.000000e-01     -2.500000e-01     -2.000000e-01     -1.500000e-01     -1.000000e-01     
-5.000000e-02     -1.665335e-17     5.000000e-02     -3.000000e-01     -2.500000e-01     
-2.000000e-01     -1.500000e-01     -1.000000e-01     -5.000000e-02     -4.163336e-18     
5.000000e-02     -3.000000e-01     -2.500000e-01     -2.000000e-01     -1.500000e-01     
-1.000000e-01     -5.000000e-02     -8.326673e-18     5.000000e-02     -3.000000e-01     
-2.500000e-01     -2.000000e-01     -1.500000e-01     -1.000000e-01     -5.000000e-02     
1.665335e-17     5.000000e-02     -3.000000e-01     -2.500000e-01     -2.000000e-01     
-1.500000e-01     -1.000000e-01     -5.000000e-02     0.000000e+00     5.000000e-02     
-3.000000e-01     -2.500000e-01     -2.000000e-01     -1.500000e-01     -1.000000e-01     
-3.000000e-01     -2.500000e-01     -2.000000e-01     -1.500000e-01     -1.000000e-01     
-2.000000e-01     -2.000000e-01     -1.500000e-01     -1.500000e-01     -1.000000e-01     
-1.000000e-01     -5.000000e-02     -5.000000e-02     0.000000e+00     1.335737e-17     
5.000000e-02     5.000000e-02     -2.000000e-01     -1.500000e-01     -1.000000e-01     
-5.000000e-02     7.285839e-18     5.000000e-02     -2.000000e-01     -1.500000e-01     
-1.000000e-01     -5.000000e-02     -9.714451e-18     5.000000e-02     -2.000000e-01     
-1.500000e-01     -1.000000e-01     -5.000000e-02     -1.942890e-17     5.000000e-02     
-2.000000e-01     -1.500000e-01     -1.000000e-01     -5.000000e-02     -4.857226e-18     
5.000000e-02     -2.000000e-01     -1.500000e-01     -1.000000e-01     -5.000000e-02     
-9.714451e-18     5.000000e-02     -2.000000e-01     -1.500000e-01     -1.000000e-01     
-5.000000e-02     1.942890e-17     5.000000e-02     -1.500000e-01     -1.000000e-01     
-5.000000e-02     0.000000e+00     5.000000e-02     -1.500000e-01     -1.000000e-01     
-2.000000e-01     -2.000000e-01     -1.500000e-01     -1.500000e-01     -1.000000e-01     
-1.000000e-01     -5.000000e-02     -5.000000e-02     0.000000e+00     1.526557e-17     
5.000000e-02     5.000000e-02     -2.000000e-01     -1.500000e-01     -1.000000e-01     
-5.000000e-02     8.326673e-18     5.000000e-02     -2.000000e-01     -1.500000e-01     
-1.000000e-01     -5.000000e-02     -1.110223e-17     5.000000e-02     -2.000000e-01     
-1.500000e-01     -1.000000e-01     -5.000000e-02     -2.220446e-17     5.000000e-02     
-2.000000e-01     -1.500000e-01     -1.000000e-01     -5.000000e-02     -5.551115e-18     
5.000000e-02     -2.000000e-01     -1.500000e-01     -1.000000e-01     -5.000000e-02     
-1.110223e-17     5.000000e-02     -1.500000e-01     -1.000000e-01     -5.000000e-02     
2.220446e-17     5.000000e-02     -1.500000e-01     -1.000000e-01     -5.000000e-02     
0.000000e+00     -1.000000e-01     -5.000000e-02     -1.110223e-17     -2.000000e-01     
-2.000000e-01     -1.500000e-01     -1.500000e-01     -1.000000e-01     -1.000000e-01     
-5.000000e-02     -5.000000e-02     0.000000e+00     1.717376e-17     5.000000e-02     
5.000000e-02     -2.000000e-01     -1.500000e-01     -1.000000e-01     -5.000000e-02     
9.367507e-18     5.000000e-02     -2.000000e-01     -1.500000e-01     -1.000000e-01     
-5.000000e-02     -1.249001e-17     5.000000e-02     -2.000000e-01     -1.500000e-01     
-1.000000e-01     -5.000000e-02     -2.498002e-17     5.000000e-02     -2.000000e-01     
-1.500000e-01     -1.000000e-01     -5.000000e-02     -6.245005e-18     5.000000e-02     
-2.000000e-01     -1.500000e-01     -1.000000e-01     -5.000000e-02     -1.249001e-17     
5.000000e-02     -1.500000e-01     -1.000000e-01     -5.000000e-02     2.498002e-17     
-1.500000e-01     -1.000000e-01     -5.000000e-02     0.000000e+00     -1.000000e-01     
-5.000000e-02     -1.249001e-17     -2.000000e-01     -2.000000e-01     -1.500000e-01     
-1.500000e-01     -1.000000e-01     -1.000000e-01     -5.000000e-02     -5.000000e-02     
0.000000e+00     1.908196e-17     5.000000e-02     5.000000e-02     -2.000000e-01     
-1.500000e-01     -1.000000e-01     -5.000000e-02     1.040834e-17     5.000000e-02     
-2.000000e-01     -1.500000e-01     -1.000000e-01     -5.000000e-02     -1.387779e-17     
5.000000e-02     -2.000000e-01     -1.500000e-01     -1.000000e-01     -5.000000e-02     
-2.775558e-17     5.000000e-02     -2.000000e-01     -1.500000e-01     -1.000000e-01     
-5.000000e-02     -6.938894e-18     5.000000e-02     -2.000000e-01     -1.500000e-01     
-1.000000e-01     -5.000000e-02     -1.387779e-17     5.000000e-02     -1.500000e-01     
-1.000000e-01     -5.000000e-02     2.775558e-17     -1.500000e-01     -1.000000e-01     
-5.000000e-02     0.000000e+00     -1.000000e-01     -5.000000e-02     -1.387779e-17     

3.000000e-01     
3.000000e-01     3.500000e-01     3.500000e-01     4.500000e-01     4.500000e-01     
5.000000e-01     5.000000e-01     4.500000e-01     5.000000e-01     4.000000e-01     
4.000000e-01     4.000000e-01     3.500000e-01     3.500000e-01     3.500000e-01     
3.000000e-01     3.000000e-01     3.000000e-01     3.000000e-01     3.500000e-01     
2.500000e-01     2.500000e-01     2.500000e-01     2.500000e-01     5.000000e-01     
4.500000e-01     5.000000e-01     4.500000e-01     5.000000e-01     4.500000e-01     
4.500000e-01     5.000000e-01     4.000000e-01     4.000000e-01     4.000000e-01     
4.000000e-01     4.000000e-01     4.500000e-01     3.500000e-01     3.500000e-01     
3.500000e-01     3.500000e-01     3.500000e-01     3.000000e-01     3.000000e-01     
3.000000e-01     3.000000e-01     2.500000e-01     2.500000e-01     2.500000e-01     