Title = " tecplot file for 2D Cavity problem " 
variables = "x", "y", "z", "velX", "cellCentroidY" 
Zone T = "nmesh0" N = 436 E = 250 DATAPACKING = BLOCK, VARLOCATION = ([4-5]=CELLCENTERED),  ZONETYPE=FEBRICK 
-0.1    -0.1    -0.1    -0.1    -0.1    
-0.1    -0.1    -0.1    -0.1    -0.1    
-0.15    -0.15    -0.15    -0.15    -0.15    
-0.15    -0.15    -0.15    -0.15    -0.15    
-0.15    -0.15    -0.15    -0.15    -0.15    
-0.15    -0.15    -0.15    -0.15    -0.15    
-0.15    -0.15    -0.15    -0.15    -0.15    
-0.15    -0.15    -0.15    -0.15    -0.15    
-0.15    -0.15    -0.15    -0.15    -0.15    
-0.15    -0.15    -0.15    -0.2    -0.2    
-0.2    -0.2    -0.2    -0.2    -0.2    
-0.2    -0.2    -0.2    -0.2    -0.2    
-0.2    -0.2    -0.2    -0.2    -0.2    
-0.2    -0.2    -0.2    -0.2    -0.2    
-0.2    -0.2    -0.2    -0.2    -0.2    
-0.2    -0.2    -0.2    -0.2    -0.2    
-0.2    -0.2    -0.2    -0.2    -0.2    
-0.2    -0.2    -0.2    -0.2    -0.2    
-0.2    -0.2    -0.25    -0.25    -0.25    
-0.25    -0.25    -0.25    -0.25    -0.25    
-0.25    -0.25    -0.25    -0.25    -0.25    
-0.25    -0.25    -0.25    -0.25    -0.25    
-0.25    -0.25    -0.25    -0.25    -0.25    
-0.25    -0.25    -0.25    -0.25    -0.25    
-0.25    -0.25    -0.25    -0.25    -0.25    
-0.25    -0.25    -0.25    -0.25    -0.25    
-0.25    -0.25    -0.25    -0.25    -0.25    
-0.25    -0.25    -0.25    -0.25    -0.25    
-0.3    -0.3    -0.3    -0.3    -0.3    
-0.3    -0.3    -0.3    -0.3    -0.3    
-0.3    -0.3    -0.3    -0.3    -0.3    
-0.3    -0.3    -0.3    -0.3    -0.3    
-0.3    -0.3    -0.3    -0.3    -0.3    
-0.3    -0.3    -0.3    -0.3    -0.3    
-0.3    -0.3    -0.3    -0.3    -0.3    
-0.3    -0.3    -0.3    -0.3    -0.3    
-0.3    -0.3    -0.3    -0.3    -0.3    
-0.3    -0.3    -0.35    -0.35    -0.35    
-0.35    -0.35    -0.35    -0.35    -0.35    
-0.35    -0.35    -0.35    -0.35    -0.35    
-0.35    -0.35    -0.35    -0.35    -0.35    
-0.35    -0.35    -0.35    -0.35    -0.35    
-0.35    -0.35    -0.35    -0.35    -0.35    
-0.35    -0.35    -0.35    -0.35    -0.35    
-0.35    -0.35    -0.35    -0.35    -0.35    
-0.35    -0.35    -0.35    -0.35    -0.35    
-0.35    -0.35    -0.35    -0.35    -0.35    
-0.35    -0.35    -0.35    -0.35    -0.35    
-0.35    -0.35    -0.35    -0.35    -0.35    
-0.35    -0.35    -0.35    -0.35    -0.35    
-0.35    -0.4    -0.4    -0.4    -0.4    
-0.4    -0.4    -0.4    -0.4    -0.4    
-0.4    -0.4    -0.4    -0.4    -0.4    
-0.4    -0.4    -0.4    -0.4    -0.4    
-0.4    -0.4    -0.4    -0.4    -0.4    
-0.4    -0.4    -0.4    -0.4    -0.4    
-0.4    -0.4    -0.4    -0.4    -0.4    
-0.4    -0.4    -0.4    -0.4    -0.4    
-0.4    -0.4    -0.4    -0.4    -0.4    
-0.4    -0.4    -0.4    -0.4    -0.4    
-0.4    -0.4    -0.4    -0.4    -0.4    
-0.4    -0.4    -0.4    -0.4    -0.4    
-0.4    -0.4    -0.4    -0.4    -0.45    
-0.45    -0.45    -0.45    -0.45    -0.45    
-0.45    -0.45    -0.45    -0.45    -0.45    
-0.45    -0.45    -0.45    -0.45    -0.45    
-0.45    -0.45    -0.45    -0.45    -0.45    
-0.45    -0.45    -0.45    -0.45    -0.45    
-0.45    -0.45    -0.45    -0.45    -0.45    
-0.45    -0.45    -0.45    -0.45    -0.45    
-0.45    -0.45    -0.45    -0.45    -0.45    
-0.45    -0.45    -0.45    -0.45    -0.45    
-0.45    -0.45    -0.45    -0.45    -0.45    
-0.45    -0.45    -0.45    -0.45    -0.45    
-0.45    -0.45    -0.45    -0.45    -0.45    
-0.5    -0.5    -0.5    -0.5    -0.5    
-0.5    -0.5    -0.5    -0.5    -0.5    
-0.5    -0.5    -0.5    -0.5    -0.5    
-0.5    -0.5    -0.5    -0.5    -0.5    
-0.5    -0.5    -0.5    -0.5    -0.5    
-0.5    -0.5    -0.5    -0.5    -0.5    
-0.5    -0.5    -0.5    -0.5    -0.5    
-0.5    -0.5    -0.5    -0.5    -0.5    
-0.5    -0.5    -0.5    -0.5    -0.5    
-0.5    -0.5    -0.5    -0.5    -0.5    
-0.5    -0.5    -0.5    -0.5    -0.5    
-0.5    -0.5    -0.5    -0.5    -0.5    
-0.5    
-0.15    -0.1    -0.1    -0.15    -0.5    
-0.45    -0.45    -0.5    -0.5    -0.45    
-0.1    -0.15    -0.15    -0.1    -0.15    
-0.1    -0.2    -0.15    -0.2    -0.1    
-0.45    -0.5    -0.4    -0.4    -0.45    
-0.35    -0.35    -0.3    -0.3    -0.25    
-0.25    -0.2    -0.15    -0.1    -0.45    
-0.5    -0.4    -0.35    -0.3    -0.25    
-0.2    -0.45    -0.5    -0.4    -0.35    
-0.3    -0.25    -0.2    -0.1    -0.15    
-0.15    -0.1    -0.15    -0.2    -0.1    
-0.4    -0.45    -0.35    -0.3    -0.25    
-0.2    -0.25    -0.15    -0.1    -0.45    
-0.5    -0.5    -0.4    -0.35    -0.3    
-0.25    -0.2    -0.15    -0.1    -0.45    
-0.5    -0.4    -0.35    -0.3    -0.25    
-0.2    -0.15    -0.1    -0.45    -0.5    
-0.4    -0.35    -0.3    -0.25    -0.2    
-0.15    -0.1    -0.1    -0.15    -0.15    
-0.1    -0.2    -0.25    -0.15    -0.1    
-0.45    -0.5    -0.4    -0.35    -0.3    
-0.25    -0.2    -0.15    -0.1    -0.45    
-0.5    -0.4    -0.35    -0.3    -0.25    
-0.2    -0.15    -0.1    -0.45    -0.5    
-0.4    -0.35    -0.3    -0.25    -0.2    
-0.15    -0.1    -0.45    -0.5    -0.4    
-0.35    -0.3    -0.25    -0.2    -0.15    
-0.1    -0.5    -0.45    -0.35    -0.3    
-0.2    -0.25    -0.15    -0.1    -0.45    
-0.5    -0.4    -0.35    -0.3    -0.25    
-0.2    -0.15    -0.1    -0.45    -0.5    
-0.4    -0.35    -0.3    -0.25    -0.2    
-0.15    -0.1    -0.45    -0.5    -0.4    
-0.35    -0.3    -0.25    -0.2    -0.15    
-0.1    -0.45    -0.5    -0.4    -0.35    
-0.3    -0.25    -0.2    -0.15    -0.1    
-0.45    -0.5    -0.4    -0.35    -0.3    
-0.25    -0.2    -0.2    -0.25    -0.15    
-0.45    -0.5    -0.45    -0.5    -0.4    
-0.4    -0.35    -0.35    -0.3    -0.25    
-0.2    -0.15    -0.1    -0.45    -0.5    
-0.4    -0.35    -0.3    -0.25    -0.2    
-0.15    -0.1    -0.45    -0.5    -0.4    
-0.35    -0.3    -0.25    -0.2    -0.15    
-0.1    -0.45    -0.5    -0.4    -0.35    
-0.3    -0.25    -0.2    -0.15    -0.1    
-0.45    -0.5    -0.4    -0.35    -0.3    
-0.25    -0.2    -0.5    -0.45    -0.4    
-0.35    -0.3    -0.25    -0.2    -0.5    
-0.45    -0.4    -0.35    -0.3    -0.25    
-0.2    -0.45    -0.5    -0.4    -0.35    
-0.15    -0.2    -0.45    -0.5    -0.4    
-0.35    -0.3    -0.25    -0.2    -0.15    
-0.1    -0.45    -0.5    -0.4    -0.35    
-0.3    -0.25    -0.2    -0.15    -0.1    
-0.45    -0.5    -0.4    -0.35    -0.3    
-0.25    -0.2    -0.15    -0.1    -0.45    
-0.5    -0.4    -0.35    -0.3    -0.25    
-0.2    -0.15    -0.1    -0.45    -0.5    
-0.4    -0.35    -0.3    -0.25    -0.2    
-0.45    -0.5    -0.4    -0.35    -0.3    
-0.25    -0.2    -0.45    -0.5    -0.4    
-0.35    -0.3    -0.25    -0.2    -0.45    
-0.5    -0.4    -0.35    -0.45    -0.5    
-0.4    -0.35    -0.3    -0.25    -0.2    
-0.15    -0.1    -0.45    -0.5    -0.4    
-0.35    -0.3    -0.25    -0.2    -0.15    
-0.1    -0.45    -0.5    -0.4    -0.35    
-0.3    -0.25    -0.2    -0.15    -0.1    
-0.45    -0.5    -0.4    -0.35    -0.3    
-0.25    -0.2    -0.15    -0.1    -0.45    
-0.5    -0.4    -0.35    -0.3    -0.25    
-0.2    -0.45    -0.5    -0.4    -0.35    
-0.3    -0.25    -0.2    -0.45    -0.5    
-0.4    -0.35    -0.3    -0.25    -0.2    
-0.45    -0.5    -0.4    -0.35    -0.45    
-0.5    -0.4    -0.35    -0.3    -0.2    
-0.25    -0.15    -0.1    -0.45    -0.5    
-0.4    -0.35    -0.3    -0.25    -0.2    
-0.15    -0.1    -0.45    -0.5    -0.4    
-0.35    -0.3    -0.25    -0.2    -0.15    
-0.1    -0.45    -0.5    -0.4    -0.35    
-0.3    -0.25    -0.2    -0.15    -0.1    
-0.45    -0.5    -0.4    -0.35    -0.3    
-0.25    -0.2    -0.45    -0.5    -0.4    
-0.35    -0.3    -0.25    -0.2    -0.45    
-0.5    -0.4    -0.35    -0.3    -0.25    
-0.2    
0.1    0.1    0.15    0.15    -0.1    
-0.1    -0.05    -0.05    -0.15    -0.15    
0.15    0.15    0.1    0.1    0.05    
0.05    0.0    0.0    0.05    0.0    
-0.05    -0.05    -0.05    0.0    0.0    
-0.05    0.0    -0.05    0.0    -0.05    
0.0    -0.05    -0.05    -0.05    -0.1    
-0.1    -0.1    -0.1    -0.1    -0.1    
-0.1    -0.15    -0.15    -0.15    -0.15    
-0.15    -0.15    -0.15    0.15    0.15    
0.1    0.1    0.05    0.05    0.05    
0.0    0.0    0.0    0.0    0.0    
0.0    0.05    0.0    0.0    -0.05    
-0.05    0.0    -0.05    -0.05    -0.05    
-0.05    -0.05    -0.05    -0.05    -0.1    
-0.1    -0.1    -0.1    -0.1    -0.1    
-0.1    -0.1    -0.1    -0.15    -0.15    
-0.15    -0.15    -0.15    -0.15    -0.15    
-0.15    -0.15    0.15    0.15    0.1    
0.1    0.05    0.05    0.05    0.05    
0.0    0.0    0.0    0.0    0.0    
0.0    0.0    0.0    0.0    -0.05    
-0.05    -0.05    -0.05    -0.05    -0.05    
-0.05    -0.05    -0.05    -0.1    -0.1    
-0.1    -0.1    -0.1    -0.1    -0.1    
-0.1    -0.1    -0.15    -0.15    -0.15    
-0.15    -0.15    -0.15    -0.15    -0.15    
-0.15    -0.2    -0.2    -0.2    -0.2    
0.05    0.05    0.05    0.05    0.0    
0.0    0.0    0.0    0.0    0.0    
0.0    0.0    0.0    -0.05    -0.05    
-0.05    -0.05    -0.05    -0.05    -0.05    
-0.05    -0.05    -0.1    -0.1    -0.1    
-0.1    -0.1    -0.1    -0.1    -0.1    
-0.1    -0.15    -0.15    -0.15    -0.15    
-0.15    -0.15    -0.15    -0.15    -0.15    
-0.2    -0.2    -0.2    -0.2    -0.2    
-0.2    -0.2    0.05    0.05    0.05    
0.0    0.0    0.05    0.05    0.0    
0.05    0.0    0.05    0.0    0.0    
0.0    0.0    0.0    -0.05    -0.05    
-0.05    -0.05    -0.05    -0.05    -0.05    
-0.05    -0.05    -0.1    -0.1    -0.1    
-0.1    -0.1    -0.1    -0.1    -0.1    
-0.1    -0.15    -0.15    -0.15    -0.15    
-0.15    -0.15    -0.15    -0.15    -0.15    
-0.2    -0.2    -0.2    -0.2    -0.2    
-0.2    -0.2    -0.25    -0.25    -0.25    
-0.25    -0.25    -0.25    -0.25    -0.3    
-0.3    -0.3    -0.3    -0.3    -0.3    
-0.3    0.05    0.05    0.05    0.05    
0.05    0.05    0.0    0.0    0.0    
0.0    0.0    0.0    0.0    0.0    
0.0    -0.05    -0.05    -0.05    -0.05    
-0.05    -0.05    -0.05    -0.05    -0.05    
-0.1    -0.1    -0.1    -0.1    -0.1    
-0.1    -0.1    -0.1    -0.1    -0.15    
-0.15    -0.15    -0.15    -0.15    -0.15    
-0.15    -0.15    -0.15    -0.2    -0.2    
-0.2    -0.2    -0.2    -0.2    -0.2    
-0.25    -0.25    -0.25    -0.25    -0.25    
-0.25    -0.25    -0.3    -0.3    -0.3    
-0.3    -0.3    -0.3    -0.3    0.05    
0.05    0.05    0.05    0.0    0.0    
0.0    0.0    0.0    0.0    0.0    
0.0    0.0    -0.05    -0.05    -0.05    
-0.05    -0.05    -0.05    -0.05    -0.05    
-0.05    -0.1    -0.1    -0.1    -0.1    
-0.1    -0.1    -0.1    -0.1    -0.1    
-0.15    -0.15    -0.15    -0.15    -0.15    
-0.15    -0.15    -0.15    -0.15    -0.2    
-0.2    -0.2    -0.2    -0.2    -0.2    
-0.2    -0.25    -0.25    -0.25    -0.25    
-0.25    -0.25    -0.25    -0.3    -0.3    
-0.3    -0.3    -0.3    -0.3    -0.3    
0.05    0.05    0.05    0.05    0.0    
0.0    0.0    0.0    0.0    0.0    
0.0    0.0    0.0    -0.05    -0.05    
-0.05    -0.05    -0.05    -0.05    -0.05    
-0.05    -0.05    -0.1    -0.1    -0.1    
-0.1    -0.1    -0.1    -0.1    -0.1    
-0.1    -0.15    -0.15    -0.15    -0.15    
-0.15    -0.15    -0.15    -0.15    -0.15    
-0.2    -0.2    -0.2    -0.2    -0.2    
-0.2    -0.2    -0.25    -0.25    -0.25    
-0.25    -0.25    -0.25    -0.25    -0.3    
-0.3    -0.3    -0.3    -0.3    -0.3    
-0.3    
369.346073585    366.982197659    398.545493364    398.471125195    398.586517276    
398.655260458    367.877163551    372.46736992    367.140938872    371.150231532    
374.155917467    374.155917537    376.8247442    367.140938938    370.490187547    
392.403688383    395.585031718    395.690622475    396.053917765    388.853804587    
392.584712784    393.208622251    384.764596888    389.117905563    390.030650486    
379.941059661    385.122605831    386.364830179    380.4070374    382.032786405    
376.824744289    370.490187662    398.736791134    395.899871058    396.148270407    
392.94358641    393.370413683    389.641795884    390.266768283    385.833403937    
386.685050515    381.333313677    382.44982866    398.798213166    396.335253545    
393.691169405    390.735169634    387.320860581    383.278900289    382.03278634    
384.583469358    380.090622325    374.60781188    398.705791385    398.89221773    
396.621873097    394.184440993    391.459227233    388.3110668    384.58346942    
377.354207672    380.090622419    371.15023186    374.607812004    398.918745703    
396.702623858    394.322939008    391.661419875    388.585409664    384.9409898    
378.408497585    380.544888689    372.467370287    375.174691217    398.971308838    
396.862656114    394.597524665    392.062540591    389.13016322    385.651797379    
381.449559294    376.306123819    387.541881776    383.892197745    399.106896203    
397.276165166    395.309543419    393.108558081    390.562397658    387.541881833    
383.892197838    379.423822802    399.128278363    397.341258837    395.421210984    
393.271634506    390.783767834    387.830545001    384.259261785    379.88233345    
399.048900376    399.170646511    397.470265362    395.642610258    392.655797249    
393.595168954    391.223362605    388.404503821    384.990360732    380.797638191    
399.233191047    394.073709673    388.145400448    399.344715965    398.001254303    
396.557341915    394.939987646    393.066713862    390.840799395    388.145400512    
384.835953655    399.360401287    398.049009295    396.639279891    395.059681334    
393.229257608    391.052864959    388.415245009    385.173310974    399.391481968    
397.660765224    398.14365524    395.969751443    396.801740145    395.297156098    
391.874519086    393.55205276    389.256403017    391.474554213    388.952765933    
385.846868547    399.437365287    398.283421123    397.041803684    395.648427198    
394.030238556    392.100522531    398.001254294    399.34471596    399.599743999    
396.557341898    398.779039185    397.896644328    399.599744002    398.779039193    
397.896644345    396.907643092    395.76112708    394.397135942    392.742806801    
390.70728177    399.609323415    398.808206218    397.94669568    396.980772267    
395.860464934    394.526788543    392.90786592    390.913766108    399.62830545    
398.866013549    398.045935708    397.125866206    396.057747472    394.784615301    
393.236684522    391.326074754    399.497134228    399.656328641    398.465556007    
398.951381315    397.354896993    398.192585225    396.107157346    397.340497841    
394.655891541    396.350018266    392.921681669    395.167375196    399.569524777    
399.692833584    398.68625021    399.062631547    397.734622468    398.383855258    
396.664329586    397.620804596    395.417426753    396.732452795    393.924144319    
395.669545842    399.737048924    399.197439533    398.615842419    397.961286452    
397.197988662    396.282671186    399.865385437    399.589347112    399.29250187    
399.865385438    399.589347115    399.292501877    398.959684157    398.114157953    
397.556349949    396.869230428    399.868606952    399.599156186    399.309335651    
398.984282367    398.607096644    398.157784219    397.611904539    396.938750639    
399.874990577    399.618597366    399.342713446    399.033087849    398.673467365    
398.244541857    397.722581051    397.077577491    399.884414847    399.647307809    
399.392037544    399.105285553    398.771797733    398.373345064    399.896691753    
399.684723594    399.456370773    399.199577898    398.900467887    398.542341714    
399.911561997    399.730063276    399.534401115    399.314116477    398.748692625    

-0.125    -0.125    -0.475    -0.475    -0.475    
-0.475    -0.125    -0.125    -0.125    -0.125    
-0.175    -0.175    -0.175    -0.125    -0.125    
-0.375    -0.425    -0.425    -0.425    -0.325    
-0.375    -0.375    -0.275    -0.325    -0.325    
-0.225    -0.275    -0.275    -0.225    -0.225    
-0.175    -0.125    -0.475    -0.425    -0.425    
-0.375    -0.375    -0.325    -0.325    -0.275    
-0.275    -0.225    -0.225    -0.475    -0.425    
-0.375    -0.325    -0.275    -0.225    -0.225    
-0.225    -0.175    -0.125    -0.475    -0.475    
-0.425    -0.375    -0.325    -0.275    -0.225    
-0.175    -0.175    -0.125    -0.125    -0.475    
-0.425    -0.375    -0.325    -0.275    -0.225    
-0.175    -0.175    -0.125    -0.125    -0.475    
-0.425    -0.375    -0.325    -0.275    -0.225    
-0.175    -0.125    -0.225    -0.175    -0.475    
-0.425    -0.375    -0.325    -0.275    -0.225    
-0.175    -0.125    -0.475    -0.425    -0.375    
-0.325    -0.275    -0.225    -0.175    -0.125    
-0.475    -0.475    -0.425    -0.375    -0.325    
-0.325    -0.275    -0.225    -0.175    -0.125    
-0.475    -0.325    -0.175    -0.475    -0.425    
-0.375    -0.325    -0.275    -0.225    -0.175    
-0.125    -0.475    -0.425    -0.375    -0.325    
-0.275    -0.225    -0.175    -0.125    -0.475    
-0.425    -0.425    -0.375    -0.375    -0.325    
-0.275    -0.275    -0.225    -0.225    -0.175    
-0.125    -0.475    -0.425    -0.375    -0.325    
-0.275    -0.225    -0.425    -0.475    -0.475    
-0.375    -0.425    -0.375    -0.475    -0.425    
-0.375    -0.325    -0.275    -0.225    -0.175    
-0.125    -0.475    -0.425    -0.375    -0.325    
-0.275    -0.225    -0.175    -0.125    -0.475    
-0.425    -0.375    -0.325    -0.275    -0.225    
-0.175    -0.125    -0.475    -0.475    -0.425    
-0.425    -0.375    -0.375    -0.325    -0.325    
-0.275    -0.275    -0.225    -0.225    -0.475    
-0.475    -0.425    -0.425    -0.375    -0.375    
-0.325    -0.325    -0.275    -0.275    -0.225    
-0.225    -0.475    -0.425    -0.375    -0.325    
-0.275    -0.225    -0.475    -0.425    -0.375    
-0.475    -0.425    -0.375    -0.325    -0.225    
-0.175    -0.125    -0.475    -0.425    -0.375    
-0.325    -0.275    -0.225    -0.175    -0.125    
-0.475    -0.425    -0.375    -0.325    -0.275    
-0.225    -0.175    -0.125    -0.475    -0.425    
-0.375    -0.325    -0.275    -0.225    -0.475    
-0.425    -0.375    -0.325    -0.275    -0.225    
-0.475    -0.425    -0.375    -0.325    -0.225    

13     14     11     12     51     52     49     50     
12     11     14     13     4     3     2     1     
35     36     5     6     42     43     9     10     
6     5     36     35     7     8     22     21     
36     35     21     22     76     75     65     66     
43     42     35     36     85     84     75     76     
52     51     13     14     55     53     15     16     
51     52     49     50     95     96     93     94     
55     53     15     16     64     63     18     20     
53     55     52     51     99     100     96     95     
15     18     63     53     19     17     61     54     
63     61     17     18     73     72     32     33     
61     63     53     54     107     108     99     97     
64     63     18     20     74     73     33     34     
63     64     55     53     108     109     100     99     
56     68     23     24     58     69     26     27     
24     23     68     56     25     21     65     57     
68     65     21     23     77     75     35     37     
65     68     56     57     110     112     103     101     
58     69     26     27     59     70     28     29     
69     68     23     26     78     77     37     38     
68     69     58     56     112     113     104     103     
59     70     28     29     60     71     30     31     
70     69     26     28     79     78     38     39     
69     70     59     58     113     114     105     104     
60     71     30     31     61     72     32     17     
71     70     28     30     80     79     39     40     
70     71     60     59     114     115     106     105     
72     71     30     32     81     80     40     41     
71     72     61     60     115     116     107     106     
72     73     63     61     116     117     108     107     
73     74     64     63     117     118     109     108     
76     75     65     66     120     119     110     111     
77     75     35     37     86     84     42     44     
75     77     68     65     119     121     112     110     
78     77     37     38     87     86     44     45     
77     78     69     68     121     122     113     112     
79     78     38     39     88     87     45     46     
78     79     70     69     122     123     114     113     
80     79     39     40     89     88     46     47     
79     80     71     70     123     124     115     114     
81     80     40     41     90     89     47     48     
80     81     72     71     124     125     116     115     
85     84     75     76     129     128     119     120     
84     86     77     75     128     130     121     119     
86     87     78     77     130     131     122     121     
87     88     79     78     131     132     123     122     
88     89     80     79     132     133     124     123     
89     90     81     80     133     134     125     124     
54     61     107     97     62     60     106     98     
106     107     97     98     150     151     141     142     
107     108     99     97     151     152     143     141     
108     109     100     99     152     153     144     143     
57     65     110     101     67     66     111     102     
111     110     101     102     155     154     145     146     
110     112     103     101     154     156     147     145     
112     113     104     103     156     157     148     147     
113     114     105     104     157     158     149     148     
114     115     106     105     158     159     150     149     
115     116     107     106     159     160     151     150     
117     116     72     73     126     125     81     82     
116     117     108     107     160     161     152     151     
118     117     73     74     127     126     82     83     
117     118     109     108     161     162     153     152     
120     119     110     111     164     163     154     155     
119     121     112     110     163     165     156     154     
121     122     113     112     165     166     157     156     
122     123     114     113     166     167     158     157     
123     124     115     114     167     168     159     158     
124     125     116     115     168     169     160     159     
126     125     81     82     135     134     90     91     
125     126     117     116     169     170     161     160     
127     126     82     83     136     135     91     92     
126     127     118     117     170     171     162     161     
129     128     119     120     173     172     163     164     
128     130     121     119     172     174     165     163     
130     131     122     121     174     175     166     165     
131     132     123     122     175     176     167     166     
132     133     124     123     176     177     168     167     
133     134     125     124     177     178     169     168     
134     135     126     125     178     179     170     169     
135     136     127     126     179     180     171     170     
150     151     141     142     200     201     188     189     
151     152     143     141     201     202     190     188     
155     154     145     146     205     204     191     192     
154     156     147     145     204     206     195     191     
156     157     148     147     206     207     197     195     
157     158     149     148     207     208     199     197     
158     159     150     149     208     209     200     199     
159     160     151     150     209     210     201     200     
160     161     152     151     210     211     202     201     
161     162     153     152     211     212     203     202     
164     163     154     155     214     213     204     205     
163     165     156     154     213     215     206     204     
165     166     157     156     215     216     207     206     
166     167     158     157     216     217     208     207     
167     168     159     158     217     218     209     208     
168     169     160     159     218     219     210     209     
169     170     161     160     219     220     211     210     
170     171     162     161     220     221     212     211     
172     173     129     128     181     182     137     138     
173     172     163     164     223     222     213     214     
172     174     165     163     222     224     215     213     
174     175     166     165     224     225     216     215     
176     175     131     132     185     184     139     140     
175     176     167     166     225     226     217     216     
176     177     168     167     226     227     218     217     
177     178     169     168     227     228     219     218     
178     179     170     169     228     229     220     219     
179     180     171     170     229     230     221     220     
182     181     172     173     232     231     222     223     
184     185     176     175     234     235     226     225     
201     202     190     188     264     265     256     257     
205     204     191     192     268     267     258     259     
204     206     195     191     267     269     260     258     
206     207     197     195     269     270     261     260     
207     208     199     197     270     271     262     261     
208     209     200     199     271     272     263     262     
209     210     201     200     272     273     264     263     
210     211     202     201     273     274     265     264     
211     212     203     202     274     275     266     265     
214     213     204     205     277     276     267     268     
213     215     206     204     276     278     269     267     
215     216     207     206     278     279     270     269     
216     217     208     207     279     280     271     270     
217     218     209     208     280     281     272     271     
218     219     210     209     281     282     273     272     
219     220     211     210     282     283     274     273     
220     221     212     211     283     284     275     274     
223     222     213     214     286     285     276     277     
224     222     172     174     233     231     181     183     
222     224     215     213     285     287     278     276     
225     224     174     175     234     233     183     184     
224     225     216     215     287     288     279     278     
225     226     217     216     288     289     280     279     
227     226     176     177     236     235     185     186     
226     227     218     217     289     290     281     280     
228     227     177     178     237     236     186     187     
227     228     219     218     290     291     282     281     
228     229     220     219     291     292     283     282     
229     230     221     220     292     293     284     283     
232     231     222     223     295     294     285     286     
231     233     224     222     294     296     287     285     
233     234     225     224     296     297     288     287     
234     235     226     225     297     298     289     288     
235     236     227     226     298     299     290     289     
236     237     228     227     299     300     291     290     
252     258     191     193     254     260     195     196     
193     191     258     252     194     192     259     253     
259     258     252     253     320     319     315     316     
254     260     195     196     255     261     197     198     
258     260     254     252     319     321     317     315     
260     261     255     254     321     322     318     317     
268     267     258     259     329     328     319     320     
267     269     260     258     328     330     321     319     
269     270     261     260     330     331     322     321     
270     271     262     261     331     332     323     322     
271     272     263     262     332     333     324     323     
272     273     264     263     333     334     325     324     
273     274     265     264     334     335     326     325     
274     275     266     265     335     336     327     326     
277     276     267     268     338     337     328     329     
276     278     269     267     337     339     330     328     
278     279     270     269     339     340     331     330     
279     280     271     270     340     341     332     331     
280     281     272     271     341     342     333     332     
281     282     273     272     342     343     334     333     
282     283     274     273     343     344     335     334     
283     284     275     274     344     345     336     335     
286     285     276     277     347     346     337     338     
285     287     278     276     346     348     339     337     
287     288     279     278     348     349     340     339     
288     289     280     279     349     350     341     340     
289     290     281     280     350     351     342     341     
290     291     282     281     351     352     343     342     
291     292     283     282     352     353     344     343     
292     293     284     283     353     354     345     344     
294     295     232     231     301     302     238     239     
295     294     285     286     356     355     346     347     
296     294     231     233     303     301     239     240     
294     296     287     285     355     357     348     346     
297     296     233     234     304     303     240     241     
296     297     288     287     357     358     349     348     
298     297     234     235     305     304     241     242     
297     298     289     288     358     359     350     349     