Title = " tecplot file for 2D Cavity problem " 
variables = "x", "y", "z", "velX", "cellCentroidY" 
Zone T = "nmesh0" N = 450 E = 250 DATAPACKING = BLOCK, VARLOCATION = ([4-5]=CELLCENTERED),  ZONETYPE=FEBRICK 
0.25    0.25    0.25    0.25    0.25    
0.25    0.2    0.2    0.2    0.2    
0.2    0.2    0.2    0.2    0.2    
0.2    0.2    0.2    0.2    0.2    
0.2    0.2    0.2    0.2    0.2    
0.2    0.2    0.2    0.2    0.2    
0.15    0.15    0.15    0.15    0.15    
0.15    0.15    0.15    0.15    0.15    
0.15    0.15    0.15    0.15    0.15    
0.15    0.15    0.15    0.15    0.15    
0.15    0.15    0.15    0.15    0.15    
0.15    0.15    0.15    0.15    0.15    
0.15    0.15    0.15    0.15    0.15    
0.15    0.15    0.15    0.15    0.15    
0.15    0.15    0.15    0.15    0.15    
0.15    0.15    0.15    0.15    0.1    
0.1    0.1    0.1    0.1    0.1    
0.1    0.1    0.1    0.1    0.1    
0.1    0.1    0.1    0.1    0.1    
0.1    0.1    0.1    0.1    0.1    
0.1    0.1    0.1    0.1    0.1    
0.1    0.1    0.1    0.1    0.1    
0.1    0.1    0.1    0.1    0.1    
0.1    0.1    0.1    0.1    0.1    
0.1    0.1    0.1    0.1    0.1    
0.1    0.1    0.1    0.1    0.1    
0.1    0.05    0.05    0.05    0.05    
0.05    0.05    0.05    0.05    0.05    
0.05    0.05    0.05    0.05    0.05    
0.05    0.05    0.05    0.05    0.05    
0.05    0.05    0.05    0.05    0.05    
0.05    0.05    0.05    0.05    0.05    
0.05    0.05    0.05    0.05    0.05    
0.05    0.05    0.05    0.05    0.05    
0.05    0.05    0.05    0.05    0.05    
0.05    0.05    0.05    -2.7755575616e-17    -2.7755575616e-17    
0.0    0.0    0.0    0.0    0.0    
0.0    0.0    2.7755575616e-17    0.0    2.7755575616e-17    
1.9081958236e-17    0.0    -2.7755575616e-17    0.0    0.0    
0.0    0.0    0.0    1.0408340856e-17    -2.7755575616e-17    
0.0    0.0    0.0    -2.7755575616e-17    -2.7755575616e-17    
-1.3877787808e-17    -2.7755575616e-17    0.0    0.0    -2.7755575616e-17    
-2.7755575616e-17    -2.7755575616e-17    -2.7755575616e-17    0.0    -2.7755575616e-17    
0.0    0.0    0.0    0.0    -6.9388939039e-18    
0.0    0.0    0.0    -2.7755575616e-17    -2.7755575616e-17    
-1.3877787808e-17    -0.05    -0.05    -0.05    -0.05    
-0.05    -0.05    -0.05    -0.05    -0.05    
-0.05    -0.05    -0.05    -0.05    -0.05    
-0.05    -0.05    -0.05    -0.05    -0.05    
-0.05    -0.05    -0.05    -0.05    -0.05    
-0.05    -0.05    -0.05    -0.05    -0.05    
-0.05    -0.05    -0.05    -0.05    -0.05    
-0.05    -0.05    -0.05    -0.05    -0.05    
-0.05    -0.05    -0.05    -0.05    -0.05    
-0.05    -0.05    -0.05    -0.05    -0.1    
-0.1    -0.1    -0.1    -0.1    -0.1    
-0.1    -0.1    -0.1    -0.1    -0.1    
-0.1    -0.1    -0.1    -0.1    -0.1    
-0.1    -0.1    -0.1    -0.1    -0.1    
-0.1    -0.1    -0.1    -0.1    -0.1    
-0.1    -0.1    -0.1    -0.1    -0.1    
-0.1    -0.1    -0.1    -0.1    -0.1    
-0.1    -0.1    -0.1    -0.1    -0.1    
-0.1    -0.1    -0.1    -0.1    -0.1    
-0.1    -0.1    -0.1    -0.1    -0.1    
-0.15    -0.15    -0.15    -0.15    -0.15    
-0.15    -0.15    -0.15    -0.15    -0.15    
-0.15    -0.15    -0.15    -0.15    -0.15    
-0.15    -0.15    -0.15    -0.15    -0.15    
-0.15    -0.15    -0.15    -0.15    -0.15    
-0.15    -0.15    -0.15    -0.15    -0.15    
-0.2    -0.2    -0.2    -0.2    -0.2    
-0.2    -0.2    -0.2    -0.2    -0.2    
-0.2    -0.2    -0.2    -0.2    -0.2    
-0.2    -0.2    -0.2    -0.2    -0.2    
-0.2    -0.2    -0.2    -0.2    -0.2    
-0.2    -0.2    -0.2    -0.2    -0.2    
-0.2    -0.2    -0.25    -0.25    -0.25    
-0.25    -0.25    -0.25    -0.25    -0.25    
-0.25    -0.25    -0.25    -0.25    -0.25    
-0.25    -0.25    -0.25    -0.25    -0.25    
-0.25    -0.25    -0.25    -0.25    -0.25    
-0.25    -0.25    -0.25    -0.25    -0.25    
-0.25    -0.25    -0.25    -0.25    -0.25    
-0.3    -0.3    -0.3    -0.3    -0.3    
-0.3    -0.3    -0.3    -0.3    -0.3    
-0.3    -0.3    -0.3    -0.3    -0.3    
-0.3    -0.3    -0.3    -0.3    -0.3    
-0.3    -0.3    -0.3    -0.3    -0.35    
-0.35    -0.35    -0.35    -0.35    -0.35    

0.4    0.45    0.45    0.4    0.5    
0.5    0.15    0.2    0.2    0.15    
0.25    0.25    0.3    0.3    0.35    
0.35    0.4    0.4    0.45    0.45    
0.5    0.5    0.15    0.2    0.25    
0.3    0.35    0.4    0.45    0.5    
0.15    0.15    0.2    0.2    0.25    
0.25    0.3    0.3    0.35    0.35    
0.4    0.4    0.45    0.45    0.5    
0.5    0.15    0.2    0.25    0.3    
0.35    0.4    0.45    0.5    0.15    
0.2    0.25    0.3    0.35    0.4    
0.45    0.5    0.15    0.2    0.25    
0.3    0.35    0.4    0.45    0.5    
0.25    0.3    0.35    0.4    0.45    
0.5    0.4    0.45    0.5    0.15    
0.15    0.2    0.2    0.25    0.25    
0.3    0.3    0.35    0.35    0.4    
0.4    0.45    0.45    0.5    0.5    
0.15    0.2    0.25    0.3    0.35    
0.4    0.45    0.5    0.15    0.2    
0.25    0.3    0.35    0.4    0.45    
0.5    0.15    0.2    0.25    0.3    
0.35    0.4    0.45    0.5    0.25    
0.3    0.35    0.4    0.45    0.5    
0.25    0.3    0.35    0.4    0.45    
0.5    0.2    0.2    0.25    0.25    
0.3    0.3    0.35    0.35    0.4    
0.4    0.45    0.45    0.5    0.5    
0.2    0.25    0.3    0.35    0.4    
0.45    0.5    0.2    0.25    0.3    
0.35    0.4    0.45    0.5    0.2    
0.25    0.3    0.35    0.4    0.45    
0.5    0.25    0.3    0.35    0.4    
0.45    0.5    0.25    0.3    0.35    
0.4    0.45    0.5    0.2    0.2    
0.25    0.25    0.3    0.3    0.35    
0.35    0.4    0.4    0.45    0.45    
0.5    0.5    0.2    0.25    0.3    
0.35    0.4    0.45    0.5    0.2    
0.25    0.3    0.35    0.4    0.45    
0.5    0.2    0.25    0.3    0.35    
0.4    0.45    0.5    0.25    0.2    
0.3    0.35    0.4    0.45    0.5    
0.25    0.3    0.35    0.4    0.45    
0.5    0.2    0.2    0.25    0.25    
0.3    0.3    0.35    0.35    0.4    
0.4    0.45    0.45    0.5    0.5    
0.2    0.25    0.3    0.35    0.4    
0.45    0.5    0.2    0.25    0.3    
0.35    0.4    0.45    0.5    0.2    
0.25    0.3    0.35    0.4    0.45    
0.5    0.2    0.25    0.3    0.35    
0.4    0.45    0.5    0.25    0.3    
0.35    0.4    0.45    0.5    0.2    
0.2    0.25    0.25    0.3    0.3    
0.35    0.35    0.4    0.4    0.45    
0.45    0.5    0.5    0.2    0.25    
0.3    0.35    0.4    0.45    0.5    
0.2    0.15    0.15    0.25    0.3    
0.35    0.4    0.45    0.5    0.2    
0.15    0.25    0.3    0.35    0.4    
0.45    0.5    0.2    0.25    0.3    
0.35    0.4    0.45    0.5    0.25    
0.3    0.35    0.4    0.45    0.5    
0.2    0.2    0.25    0.25    0.2    
0.15    0.25    0.3    0.15    0.1    
0.1    0.2    0.25    0.3    0.35    
0.05    0.1    0.05    0.15    0.2    
0.25    0.3    0.35    0.05    0.1    
0.15    0.2    0.25    0.3    0.35    
0.2    0.2    0.15    0.15    0.25    
0.25    0.3    0.3    0.15    0.1    
0.2    0.25    0.3    0.1    0.05    
0.15    0.2    0.25    0.3    0.05    
0.1    0.15    0.2    0.25    0.3    
0.05    -2.7755575616e-18    -1.1102230246e-17    0.1    0.15    
0.2    0.25    0.15    0.15    0.1    
0.1    0.2    0.2    0.25    0.25    
0.3    0.3    0.15    0.1    0.2    
0.25    0.3    0.1    0.05    0.15    
0.2    0.25    0.3    0.05    -1.3877787808e-17    
0.1    0.15    0.2    0.25    -3.469446952e-18    
0.05    0.1    0.15    0.2    0.25    
0.1    0.1    0.15    0.15    0.2    
0.2    0.15    0.1    0.2    0.1    
0.05    0.15    0.2    0.25    0.05    
0.1    0.15    0.2    0.25    0.05    
0.1    0.15    0.2    0.25    0.1    
0.1    0.15    0.15    0.2    0.2    

0.45    0.45    0.5    0.5    0.45    
0.5    0.45    0.45    0.5    0.5    
0.45    0.5    0.45    0.5    0.45    
0.5    0.5    0.45    0.5    0.45    
0.45    0.5    0.4    0.4    0.4    
0.4    0.4    0.4    0.4    0.4    
0.5    0.45    0.5    0.45    0.5    
0.45    0.5    0.45    0.5    0.45    
0.5    0.45    0.5    0.45    0.45    
0.5    0.4    0.4    0.4    0.4    
0.4    0.4    0.4    0.4    0.35    
0.35    0.35    0.35    0.35    0.35    
0.35    0.35    0.3    0.3    0.3    
0.3    0.3    0.3    0.3    0.3    
0.25    0.25    0.25    0.25    0.25    
0.25    0.2    0.2    0.2    0.5    
0.45    0.5    0.45    0.5    0.45    
0.5    0.45    0.5    0.45    0.5    
0.45    0.5    0.45    0.45    0.5    
0.4    0.4    0.4    0.4    0.4    
0.4    0.4    0.4    0.35    0.35    
0.35    0.35    0.35    0.35    0.35    
0.35    0.3    0.3    0.3    0.3    
0.3    0.3    0.3    0.3    0.25    
0.25    0.25    0.25    0.25    0.25    
0.2    0.2    0.2    0.2    0.2    
0.2    0.5    0.45    0.5    0.45    
0.5    0.45    0.5    0.45    0.5    
0.45    0.5    0.45    0.45    0.5    
0.4    0.4    0.4    0.4    0.4    
0.4    0.4    0.35    0.35    0.35    
0.35    0.35    0.35    0.35    0.3    
0.3    0.3    0.3    0.3    0.3    
0.3    0.25    0.25    0.25    0.25    
0.25    0.25    0.2    0.2    0.2    
0.2    0.2    0.2    0.5    0.45    
0.5    0.45    0.5    0.45    0.5    
0.45    0.5    0.45    0.5    0.45    
0.45    0.5    0.4    0.4    0.4    
0.4    0.4    0.4    0.4    0.35    
0.35    0.35    0.35    0.35    0.35    
0.35    0.3    0.3    0.3    0.3    
0.3    0.3    0.3    0.25    0.25    
0.25    0.25    0.25    0.25    0.25    
0.2    0.2    0.2    0.2    0.2    
0.2    0.5    0.45    0.5    0.45    
0.5    0.45    0.5    0.45    0.5    
0.45    0.5    0.45    0.45    0.5    
0.4    0.4    0.4    0.4    0.4    
0.4    0.4    0.35    0.35    0.35    
0.35    0.35    0.35    0.35    0.3    
0.3    0.3    0.3    0.3    0.3    
0.3    0.25    0.25    0.25    0.25    
0.25    0.25    0.25    0.2    0.2    
0.2    0.2    0.2    0.2    0.5    
0.45    0.5    0.45    0.5    0.45    
0.5    0.45    0.5    0.45    0.5    
0.45    0.45    0.5    0.4    0.4    
0.4    0.4    0.4    0.4    0.4    
0.35    0.35    0.4    0.35    0.35    
0.35    0.35    0.35    0.35    0.3    
0.3    0.3    0.3    0.3    0.3    
0.3    0.3    0.25    0.25    0.25    
0.25    0.25    0.25    0.25    0.2    
0.2    0.2    0.2    0.2    0.2    
0.5    0.45    0.5    0.45    0.4    
0.4    0.4    0.4    0.35    0.35    
0.4    0.35    0.35    0.35    0.35    
0.3    0.3    0.35    0.3    0.3    
0.3    0.3    0.3    0.25    0.25    
0.25    0.25    0.25    0.25    0.25    
0.5    0.45    0.45    0.5    0.5    
0.45    0.45    0.5    0.4    0.4    
0.4    0.4    0.4    0.35    0.35    
0.35    0.35    0.35    0.35    0.3    
0.3    0.3    0.3    0.3    0.3    
0.25    0.25    0.3    0.25    0.25    
0.25    0.25    0.5    0.45    0.45    
0.5    0.5    0.45    0.5    0.45    
0.5    0.45    0.4    0.4    0.4    
0.4    0.4    0.35    0.35    0.35    
0.35    0.35    0.35    0.3    0.3    
0.3    0.3    0.3    0.3    0.25    
0.25    0.25    0.25    0.25    0.25    
0.5    0.45    0.5    0.45    0.5    
0.45    0.4    0.4    0.4    0.35    
0.35    0.35    0.35    0.35    0.3    
0.3    0.3    0.3    0.3    0.25    
0.25    0.25    0.25    0.25    0.5    
0.45    0.5    0.45    0.5    0.45    

201.222730748    312.765253662    311.991480099    200.931344769    383.59592523    
387.669139662    363.901442379    387.040349574    377.602354343    352.375863249    
382.8958345    368.054745577    335.971162614    376.859905735    350.693457685    
311.549104566    367.323248492    273.001365943    350.053678147    208.006557304    
311.543747276    93.4681145169    200.768432782    362.044167402    350.311497263    
333.786293454    309.401447741    271.127776673    206.69872484    92.9932345088    
382.463163705    376.411609357    366.892962248    349.6875169    311.293915058    
200.679135705    339.482766305    321.732830601    349.033994422    297.709133503    
332.464613889    264.487352783    308.134910493    217.559675249    270.05176813    
150.555368151    205.965665138    57.2858790576    92.731490366    320.206705266    
298.164146718    319.668372549    269.450178915    295.578956638    231.878082955    
262.451844922    182.807174058    215.835279073    119.773425249    149.383507344    
42.5470731902    56.8681412485    295.398662445    248.225694919    266.606286367    
208.927623961    229.170180867    160.372176647    180.521050202    102.011919042    
118.224386973    35.245074469    41.995899087    244.778904866    205.657860517    
157.621470013    91.276683678    100.153556464    31.1607553822    34.5850155802    
89.1752070306    30.4155148003    382.256740752    376.200619931    366.693450487    
349.520294713    311.181340383    200.639247436    348.424046502    331.841918994    
307.546826032    269.559460511    205.634585094    92.6142559631    318.681343419    
294.573488646    261.504389688    215.043828595    148.852203481    56.680212885    
294.074178458    265.260834529    227.905960254    179.467810222    117.518883489    
41.7466766175    228.816261735    243.144258978    189.322397493    204.126585951    
142.674847689    156.349328561    99.3033401514    34.2850642439    226.945995404    
187.575521451    141.227436467    88.2098679896    30.0753531147    382.256740753    
376.200619929    366.693450485    349.520294712    311.181340383    200.639247436    
348.424046501    331.84191899    307.546826029    269.559460508    205.634585091    
92.6142559622    318.681343421    294.573488646    261.504389684    215.04382859    
148.852203478    56.6802128837    294.074178475    265.260834538    227.905960254    
179.467810219    117.518883487    41.7466766167    243.144258991    204.126585962    
156.34932857    99.3033401538    34.285064245    226.945995414    187.575521479    
141.227436488    88.2098680041    30.0753531195    382.463163703    376.411609352    
366.892962242    349.687516895    311.293915054    200.679135704    349.033994412    
332.464613871    308.134910476    270.051768117    205.965665129    92.7314903628    
319.668372542    295.578956629    262.451844902    215.835279055    149.383507331    
56.8681412439    274.608974213    295.398662452    266.606286371    229.170180862    
180.521050187    118.224386961    41.9958990821    276.223066747    244.778904869    
205.657860539    157.621470023    100.153556467    34.5850155808    228.816261747    
189.322397553    142.674847753    89.1752070647    30.4155148105    382.895834491    
350.311497237    321.732830584    297.709133475    298.164146711    269.450178906    
231.87808292    279.587018312    248.22569489    208.927623962    383.595925214    
352.375863209    339.482766271    320.206705204    342.48628108    325.061067313    
301.219188634    324.233946445    302.609484836    274.117729081    284.977606195    
384.62828484    355.414084676    355.461359693    340.765367764    359.123622895    
346.777104511    329.942755548    306.532107092    353.507604204    343.45635538    
357.634337655    328.465689165    345.681889228    309.365770226    329.970069626    
309.102413285    348.507500682    334.460825971    316.328585631    292.816954132    
388.57077172    366.561066419    389.795814538    378.734741236    339.294171419    
370.168329176    363.94473504    352.578831509    362.94490757    352.137111526    
337.696478671    318.133220854    359.454409173    354.994942642    342.310145396    
325.670055144    303.660057169    392.352248685    393.630953041    391.396881153    

0.475    0.425    0.425    0.475    0.225    
0.175    0.175    0.175    0.275    0.225    
0.225    0.325    0.275    0.275    0.375    
0.325    0.325    0.375    0.375    0.425    
0.425    0.475    0.475    0.175    0.225    
0.275    0.325    0.375    0.425    0.475    
0.225    0.275    0.325    0.375    0.425    
0.475    0.175    0.225    0.225    0.275    
0.275    0.325    0.325    0.375    0.375    
0.425    0.425    0.475    0.475    0.175    
0.225    0.225    0.275    0.275    0.325    
0.325    0.375    0.375    0.425    0.425    
0.475    0.475    0.225    0.275    0.275    
0.325    0.325    0.375    0.375    0.425    
0.425    0.475    0.475    0.275    0.325    
0.375    0.425    0.425    0.475    0.475    
0.425    0.475    0.225    0.275    0.325    
0.375    0.425    0.475    0.225    0.275    
0.325    0.375    0.425    0.475    0.225    
0.275    0.325    0.375    0.425    0.475    
0.225    0.275    0.325    0.375    0.425    
0.475    0.275    0.275    0.325    0.325    
0.375    0.375    0.425    0.475    0.275    
0.325    0.375    0.425    0.475    0.225    
0.275    0.325    0.375    0.425    0.475    
0.225    0.275    0.325    0.375    0.425    
0.475    0.225    0.275    0.325    0.375    
0.425    0.475    0.225    0.275    0.325    
0.375    0.425    0.475    0.275    0.325    
0.375    0.425    0.475    0.275    0.325    
0.375    0.425    0.475    0.225    0.275    
0.325    0.375    0.425    0.475    0.225    
0.275    0.325    0.375    0.425    0.475    
0.225    0.275    0.325    0.375    0.425    
0.475    0.225    0.225    0.275    0.325    
0.375    0.425    0.475    0.225    0.275    
0.325    0.375    0.425    0.475    0.275    
0.325    0.375    0.425    0.475    0.225    
0.225    0.225    0.275    0.225    0.275    
0.325    0.225    0.275    0.325    0.225    
0.225    0.175    0.175    0.175    0.225    
0.275    0.175    0.225    0.275    0.225    
0.225    0.225    0.125    0.125    0.125    
0.175    0.225    0.275    0.075    0.075    
0.075    0.125    0.125    0.175    0.175    
0.225    0.075    0.125    0.175    0.225    
0.175    0.175    0.175    0.275    0.275    
0.175    0.125    0.175    0.075    0.125    
0.175    0.225    0.025    0.075    0.125    
0.175    0.225    0.125    0.125    0.175    

19     20     2     3     22     21     5     6     
3     2     20     19     4     1     18     17     
18     20     19     17     42     44     43     41     
20     21     22     19     44     45     46     43     
33     34     8     9     35     36     11     12     
9     8     34     33     10     7     32     31     
34     32     7     8     48     47     23     24     
32     34     33     31     81     83     82     80     
35     36     11     12     37     38     13     14     
36     34     8     11     49     48     24     25     
34     36     35     33     83     85     84     82     
37     38     13     14     39     40     15     16     
38     36     11     13     50     49     25     26     
36     38     37     35     85     87     86     84     
39     40     15     16     41     42     18     17     
40     38     13     15     51     50     26     27     
38     40     39     37     87     89     88     86     
42     40     15     18     52     51     27     28     
40     42     41     39     89     91     90     88     
44     42     18     20     53     52     28     29     
42     44     43     41     91     93     92     90     
45     44     20     21     54     53     29     30     
44     45     46     43     93     94     95     92     
47     48     34     32     96     97     83     81     
48     49     36     34     97     98     85     83     
49     50     38     36     98     99     87     85     
50     51     40     38     99     100     89     87     
51     52     42     40     100     101     91     89     
52     53     44     42     101     102     93     91     
53     54     45     44     102     103     94     93     
83     85     84     82     133     135     134     132     
85     87     86     84     135     137     136     134     
87     89     88     86     137     139     138     136     
89     91     90     88     139     141     140     138     
91     93     92     90     141     143     142     140     
93     94     95     92     143     144     145     142     
97     96     47     48     105     104     55     56     
98     97     48     49     106     105     56     57     
97     98     85     83     146     147     135     133     
99     98     49     50     107     106     57     58     
98     99     87     85     147     148     137     135     
100     99     50     51     108     107     58     59     
99     100     89     87     148     149     139     137     
101     100     51     52     109     108     59     60     
100     101     91     89     149     150     141     139     
102     101     52     53     110     109     60     61     
101     102     93     91     150     151     143     141     
103     102     53     54     111     110     61     62     
102     103     94     93     151     152     144     143     
105     104     55     56     113     112     63     64     
106     105     56     57     114     113     64     65     
105     106     98     97     153     154     147     146     
107     106     57     58     115     114     65     66     
106     107     99     98     154     155     148     147     
108     107     58     59     116     115     66     67     
107     108     100     99     155     156     149     148     
109     108     59     60     117     116     67     68     
108     109     101     100     156     157     150     149     
110     109     60     61     118     117     68     69     
109     110     102     101     157     158     151     150     
111     110     61     62     119     118     69     70     
110     111     103     102     158     159     152     151     
113     114     106     105     160     161     154     153     
115     114     65     66     121     120     71     72     
114     115     107     106     161     162     155     154     
116     115     66     67     122     121     72     73     
115     116     108     107     162     163     156     155     
117     116     67     68     123     122     73     74     
116     117     109     108     163     164     157     156     
118     117     68     69     124     123     74     75     
117     118     110     109     164     165     158     157     
119     118     69     70     125     124     75     76     
118     119     111     110     165     166     159     158     
120     121     115     114     167     168     162     161     
121     122     116     115     168     169     163     162     
122     123     117     116     169     170     164     163     
124     123     74     75     130     129     77     78     
123     124     118     117     170     171     165     164     
125     124     75     76     131     130     78     79     
124     125     119     118     171     172     166     165     
129     130     124     123     176     177     171     170     
130     131     125     124     177     178     172     171     
133     135     134     132     180     182     181     179     
135     137     136     134     182     184     183     181     
137     139     138     136     184     186     185     183     
139     141     140     138     186     188     187     185     
141     143     142     140     188     190     189     187     
143     144     145     142     190     191     192     189     
146     147     135     133     193     194     182     180     
147     148     137     135     194     195     184     182     
148     149     139     137     195     196     186     184     
149     150     141     139     196     197     188     186     
150     151     143     141     197     198     190     188     
151     152     144     143     198     199     191     190     
153     154     147     146     200     201     194     193     
154     155     148     147     201     202     195     194     
155     156     149     148     202     203     196     195     
156     157     150     149     203     204     197     196     
157     158     151     150     204     205     198     197     
158     159     152     151     205     206     199     198     
160     161     154     153     207     208     201     200     
161     162     155     154     208     209     202     201     
162     163     156     155     209     210     203     202     
163     164     157     156     210     211     204     203     
164     165     158     157     211     212     205     204     
165     166     159     158     212     213     206     205     
168     167     120     121     174     173     126     127     
167     168     162     161     214     216     209     208     
169     168     121     122     175     174     127     128     
168     169     163     162     216     217     210     209     
170     169     122     123     176     175     128     129     
169     170     164     163     217     218     211     210     
170     171     165     164     218     219     212     211     
171     172     166     165     219     220     213     212     
173     174     168     167     221     222     216     214     
174     175     169     168     222     223     217     216     
175     176     170     169     223     224     218     217     
176     177     171     170     224     225     219     218     
177     178     172     171     225     226     220     219     
180     182     181     179     228     230     229     227     
182     184     183     181     230     232     231     229     
184     186     185     183     232     234     233     231     
186     188     187     185     234     236     235     233     
188     190     189     187     236     238     237     235     
190     191     192     189     238     239     240     237     
193     194     182     180     241     242     230     228     
194     195     184     182     242     243     232     230     
195     196     186     184     243     244     234     232     
196     197     188     186     244     245     236     234     
197     198     190     188     245     246     238     236     
198     199     191     190     246     247     239     238     
200     201     194     193     248     249     242     241     
201     202     195     194     249     250     243     242     
202     203     196     195     250     251     244     243     
203     204     197     196     251     252     245     244     
204     205     198     197     252     253     246     245     
205     206     199     198     253     254     247     246     
207     208     201     200     255     256     249     248     
208     209     202     201     256     257     250     249     
209     210     203     202     257     258     251     250     
210     211     204     203     258     259     252     251     
211     212     205     204     259     260     253     252     
212     213     206     205     260     261     254     253     
214     216     209     208     263     264     257     256     
216     217     210     209     264     265     258     257     
217     218     211     210     265     266     259     258     
218     219     212     211     266     267     260     259     
219     220     213     212     267     268     261     260     
221     222     216     214     269     270     264     263     
222     223     217     216     270     271     265     264     
223     224     218     217     271     272     266     265     
224     225     219     218     272     273     267     266     
225     226     220     219     273     274     268     267     
228     230     229     227     276     278     277     275     
230     232     231     229     278     280     279     277     
232     234     233     231     280     282     281     279     
234     236     235     233     282     284     283     281     
236     238     237     235     284     286     285     283     
238     239     240     237     286     287     288     285     
241     242     230     228     289     290     278     276     
242     243     232     230     290     291     280     278     
243     244     234     232     291     292     282     280     
244     245     236     234     292     293     284     282     
245     246     238     236     293     294     286     284     
246     247     239     238     294     295     287     286     
248     249     242     241     296     299     290     289     
249     250     243     242     299     300     291     290     
250     251     244     243     300     301     292     291     
251     252     245     244     301     302     293     292     
252     253     246     245     302     303     294     293     
253     254     247     246     303     304     295     294     
256     255     207     208     263     262     215     214     
255     256     249     248     305     307     299     296     
256     257     250     249     307     308     300     299     
257     258     251     250     308     309     301     300     
258     259     252     251     309     310     302     301     
259     260     253     252     310     311     303     302     
260     261     254     253     311     312     304     303     
262     263     256     255     313     314     307     305     
263     264     257     256     314     315     308     307     
264     265     258     257     315     316     309     308     
265     266     259     258     316     317     310     309     
266     267     260     259     317     318     311     310     
267     268     261     260     318     319     312     311     
269     270     264     263     320     321     315     314     
270     271     265     264     321     322     316     315     
271     272     266     265     322     323     317     316     
272     273     267     266     323     324     318     317     
273     274     268     267     324     325     319     318     
276     278     277     275     327     329     328     326     
289     290     278     276     330     332     329     327     
296     299     290     289     337     338     332     330     
299     300     291     290     338     339     333     332     
305     307     299     296     345     346     338     337     