Title = " tecplot file for 2D Cavity problem " 
variables = "x", "y", "z", "velX", "cellCentroidY" 
Zone T = "nmesh0" N = 396 E = 250 DATAPACKING = BLOCK, VARLOCATION = ([4-5]=CELLCENTERED), ZONETYPE=FEBRICK
-0.25    -0.25    -0.25    -0.25    -0.25    
-0.25    -0.25    -0.25    -0.25    -0.25    
-0.25    -0.25    -0.25    -0.25    -0.25    
-0.25    -0.25    -0.25    -0.25    -0.25    
-0.25    -0.25    -0.25    -0.25    -0.25    
-0.25    -0.25    -0.25    -0.25    -0.25    
-0.25    -0.25    -0.25    -0.25    -0.25    
-0.25    -0.25    -0.25    -0.25    -0.25    
-0.25    -0.25    -0.25    -0.25    -0.25    
-0.25    -0.25    -0.25    -0.25    -0.25    
-0.25    -0.25    -0.25    -0.25    -0.25    
-0.25    -0.25    -0.25    -0.25    -0.25    
-0.25    -0.25    -0.25    -0.25    -0.25    
-0.25    -0.3    -0.3    -0.3    -0.3    
-0.3    -0.3    -0.3    -0.3    -0.3    
-0.3    -0.3    -0.3    -0.3    -0.3    
-0.3    -0.3    -0.3    -0.3    -0.3    
-0.3    -0.3    -0.3    -0.3    -0.3    
-0.3    -0.3    -0.3    -0.3    -0.3    
-0.3    -0.3    -0.3    -0.3    -0.3    
-0.3    -0.3    -0.3    -0.3    -0.3    
-0.3    -0.3    -0.3    -0.3    -0.3    
-0.3    -0.3    -0.3    -0.3    -0.3    
-0.3    -0.3    -0.3    -0.3    -0.3    
-0.3    -0.3    -0.3    -0.3    -0.3    
-0.3    -0.3    -0.3    -0.3    -0.3    
-0.3    -0.3    -0.35    -0.35    -0.35    
-0.35    -0.35    -0.35    -0.35    -0.35    
-0.35    -0.35    -0.35    -0.35    -0.35    
-0.35    -0.35    -0.35    -0.35    -0.35    
-0.35    -0.35    -0.35    -0.35    -0.35    
-0.35    -0.35    -0.35    -0.35    -0.35    
-0.35    -0.35    -0.35    -0.35    -0.35    
-0.35    -0.35    -0.35    -0.35    -0.35    
-0.35    -0.35    -0.35    -0.35    -0.35    
-0.35    -0.35    -0.35    -0.35    -0.35    
-0.35    -0.35    -0.35    -0.35    -0.35    
-0.35    -0.35    -0.35    -0.35    -0.35    
-0.35    -0.35    -0.35    -0.35    -0.35    
-0.35    -0.35    -0.35    -0.4    -0.4    
-0.4    -0.4    -0.4    -0.4    -0.4    
-0.4    -0.4    -0.4    -0.4    -0.4    
-0.4    -0.4    -0.4    -0.4    -0.4    
-0.4    -0.4    -0.4    -0.4    -0.4    
-0.4    -0.4    -0.4    -0.4    -0.4    
-0.4    -0.4    -0.4    -0.4    -0.4    
-0.4    -0.4    -0.4    -0.4    -0.4    
-0.4    -0.4    -0.4    -0.4    -0.4    
-0.4    -0.4    -0.4    -0.4    -0.4    
-0.4    -0.4    -0.4    -0.4    -0.4    
-0.4    -0.4    -0.4    -0.4    -0.4    
-0.4    -0.4    -0.4    -0.4    -0.4    
-0.4    -0.4    -0.4    -0.4    -0.45    
-0.45    -0.45    -0.45    -0.45    -0.45    
-0.45    -0.45    -0.45    -0.45    -0.45    
-0.45    -0.45    -0.45    -0.45    -0.45    
-0.45    -0.45    -0.45    -0.45    -0.45    
-0.45    -0.45    -0.45    -0.45    -0.45    
-0.45    -0.45    -0.45    -0.45    -0.45    
-0.45    -0.45    -0.45    -0.45    -0.45    
-0.45    -0.45    -0.45    -0.45    -0.45    
-0.45    -0.45    -0.45    -0.45    -0.45    
-0.45    -0.45    -0.45    -0.45    -0.45    
-0.45    -0.45    -0.45    -0.45    -0.45    
-0.45    -0.45    -0.45    -0.45    -0.45    
-0.45    -0.45    -0.45    -0.45    -0.45    
-0.5    -0.5    -0.5    -0.5    -0.5    
-0.5    -0.5    -0.5    -0.5    -0.5    
-0.5    -0.5    -0.5    -0.5    -0.5    
-0.5    -0.5    -0.5    -0.5    -0.5    
-0.5    -0.5    -0.5    -0.5    -0.5    
-0.5    -0.5    -0.5    -0.5    -0.5    
-0.5    -0.5    -0.5    -0.5    -0.5    
-0.5    -0.5    -0.5    -0.5    -0.5    
-0.5    -0.5    -0.5    -0.5    -0.5    
-0.5    -0.5    -0.5    -0.5    -0.5    
-0.5    -0.5    -0.5    -0.5    -0.5    
-0.5    -0.5    -0.5    -0.5    -0.5    
-0.5    -0.5    -0.5    -0.5    -0.5    
-0.5    
-0.25    -0.2    -0.2    -0.25    -0.15    
-0.15    -0.1    -0.1    -0.05    -0.05    
0.0    0.0    -0.25    -0.2    -0.15    
-0.1    -0.05    0.0    -0.25    -0.2    
-0.15    -0.1    -0.05    0.0    -0.25    
-0.2    -0.15    -0.1    -0.05    1.3877787808e-17    
-0.25    -0.2    -0.15    -0.1    -0.05    
0.0    -0.25    -0.2    -0.15    -0.1    
-0.05    0.0    -0.25    -0.2    -0.15    
-0.1    -0.05    0.0    -0.25    -0.2    
-0.15    -0.1    -0.05    0.0    -0.25    
-0.2    -0.15    -0.1    -0.05    0.0    
-0.25    -0.2    -0.15    -0.1    -0.05    
0.0    -0.2    -0.25    -0.15    -0.1    
-0.05    0.0    -0.25    -0.2    -0.15    
-0.1    -0.05    0.0    -0.25    -0.2    
-0.15    -0.1    -0.05    0.0    -0.25    
-0.2    -0.15    -0.1    -0.05    0.0    
-0.25    -0.2    -0.15    -0.1    -0.05    
1.6653345369e-17    -0.25    -0.2    -0.15    -0.1    
-0.05    0.0    -0.25    -0.2    -0.15    
-0.1    -0.05    0.0    -0.25    -0.2    
-0.15    -0.1    -0.05    0.0    -0.25    
-0.2    -0.15    -0.1    -0.05    0.0    
-0.25    -0.2    -0.15    -0.1    -0.05    
0.0    -0.25    -0.2    -0.15    -0.1    
-0.05    0.0    -0.2    -0.25    -0.15    
-0.1    -0.05    0.0    -0.25    -0.2    
-0.15    -0.1    -0.05    0.0    -0.25    
-0.2    -0.15    -0.1    -0.05    0.0    
-0.25    -0.2    -0.15    -0.1    -0.05    
0.0    -0.25    -0.2    -0.15    -0.1    
-0.05    1.9428902931e-17    -0.25    -0.2    -0.15    
-0.1    -0.05    0.0    -0.25    -0.2    
-0.15    -0.1    -0.05    0.0    -0.25    
-0.2    -0.15    -0.1    -0.05    0.0    
-0.25    -0.2    -0.15    -0.1    -0.05    
0.0    -0.25    -0.2    -0.15    -0.1    
-0.05    0.0    -0.25    -0.2    -0.15    
-0.1    -0.05    0.0    -0.2    -0.25    
-0.15    -0.1    -0.05    0.0    -0.25    
-0.2    -0.15    -0.1    -0.05    0.0    
-0.25    -0.2    -0.15    -0.1    -0.05    
0.0    -0.25    -0.2    -0.15    -0.1    
-0.05    0.0    -0.25    -0.2    -0.15    
-0.1    -0.05    2.2204460493e-17    -0.25    -0.2    
-0.15    -0.1    -0.05    0.0    -0.25    
-0.2    -0.15    -0.1    -0.05    0.0    
-0.25    -0.2    -0.15    -0.1    -0.05    
0.0    -0.25    -0.2    -0.15    -0.1    
-0.05    0.0    -0.25    -0.2    -0.15    
-0.1    -0.05    0.0    -0.25    -0.2    
-0.15    -0.1    -0.05    0.0    -0.2    
-0.25    -0.15    -0.1    -0.05    0.0    
-0.25    -0.2    -0.15    -0.1    -0.05    
0.0    -0.25    -0.2    -0.15    -0.1    
-0.05    0.0    -0.25    -0.2    -0.15    
-0.1    -0.05    0.0    -0.25    -0.2    
-0.15    -0.1    -0.05    2.4980018054e-17    -0.25    
-0.2    -0.15    -0.1    -0.05    0.0    
-0.25    -0.2    -0.15    -0.1    -0.05    
0.0    -0.25    -0.2    -0.15    -0.1    
-0.05    0.0    -0.25    -0.2    -0.15    
-0.1    -0.05    0.0    -0.25    -0.2    
-0.15    -0.1    -0.05    0.0    -0.25    
-0.2    -0.15    -0.1    -0.05    0.0    
-0.2    -0.25    -0.15    -0.1    -0.05    
0.0    -0.25    -0.2    -0.15    -0.1    
-0.05    0.0    -0.25    -0.2    -0.15    
-0.1    -0.05    0.0    -0.25    -0.2    
-0.15    -0.1    -0.05    0.0    -0.25    
-0.2    -0.15    -0.1    -0.05    2.7755575616e-17    
-0.25    -0.2    -0.15    -0.1    -0.05    
0.0    -0.25    -0.2    -0.15    -0.1    
-0.05    0.0    -0.25    -0.2    -0.15    
-0.1    -0.05    0.0    -0.25    -0.2    
-0.15    -0.1    -0.05    0.0    -0.25    
-0.2    -0.15    -0.1    -0.05    0.0    
-0.25    -0.2    -0.15    -0.1    -0.05    
0.0    
-0.05    -0.05    0.0    0.0    -0.05    
0.0    -0.05    0.0    -0.05    0.0    
-0.05    0.0    -0.1    -0.1    -0.1    
-0.1    -0.1    -0.1    -0.15    -0.15    
-0.15    -0.15    -0.15    -0.15    -0.2    
-0.2    -0.2    -0.2    -0.2    -0.2    
-0.25    -0.25    -0.25    -0.25    -0.25    
-0.25    -0.3    -0.3    -0.3    -0.3    
-0.3    -0.3    -0.35    -0.35    -0.35    
-0.35    -0.35    -0.35    -0.4    -0.4    
-0.4    -0.4    -0.4    -0.4    -0.45    
-0.45    -0.45    -0.45    -0.45    -0.45    
-0.5    -0.5    -0.5    -0.5    -0.5    
-0.5    0.0    0.0    0.0    0.0    
0.0    0.0    -0.05    -0.05    -0.05    
-0.05    -0.05    -0.05    -0.1    -0.1    
-0.1    -0.1    -0.1    -0.1    -0.15    
-0.15    -0.15    -0.15    -0.15    -0.15    
-0.2    -0.2    -0.2    -0.2    -0.2    
-0.2    -0.25    -0.25    -0.25    -0.25    
-0.25    -0.25    -0.3    -0.3    -0.3    
-0.3    -0.3    -0.3    -0.35    -0.35    
-0.35    -0.35    -0.35    -0.35    -0.4    
-0.4    -0.4    -0.4    -0.4    -0.4    
-0.45    -0.45    -0.45    -0.45    -0.45    
-0.45    -0.5    -0.5    -0.5    -0.5    
-0.5    -0.5    0.0    0.0    0.0    
0.0    0.0    0.0    -0.05    -0.05    
-0.05    -0.05    -0.05    -0.05    -0.1    
-0.1    -0.1    -0.1    -0.1    -0.1    
-0.15    -0.15    -0.15    -0.15    -0.15    
-0.15    -0.2    -0.2    -0.2    -0.2    
-0.2    -0.2    -0.25    -0.25    -0.25    
-0.25    -0.25    -0.25    -0.3    -0.3    
-0.3    -0.3    -0.3    -0.3    -0.35    
-0.35    -0.35    -0.35    -0.35    -0.35    
-0.4    -0.4    -0.4    -0.4    -0.4    
-0.4    -0.45    -0.45    -0.45    -0.45    
-0.45    -0.45    -0.5    -0.5    -0.5    
-0.5    -0.5    -0.5    0.0    0.0    
0.0    0.0    0.0    0.0    -0.05    
-0.05    -0.05    -0.05    -0.05    -0.05    
-0.1    -0.1    -0.1    -0.1    -0.1    
-0.1    -0.15    -0.15    -0.15    -0.15    
-0.15    -0.15    -0.2    -0.2    -0.2    
-0.2    -0.2    -0.2    -0.25    -0.25    
-0.25    -0.25    -0.25    -0.25    -0.3    
-0.3    -0.3    -0.3    -0.3    -0.3    
-0.35    -0.35    -0.35    -0.35    -0.35    
-0.35    -0.4    -0.4    -0.4    -0.4    
-0.4    -0.4    -0.45    -0.45    -0.45    
-0.45    -0.45    -0.45    -0.5    -0.5    
-0.5    -0.5    -0.5    -0.5    0.0    
0.0    0.0    0.0    0.0    0.0    
-0.05    -0.05    -0.05    -0.05    -0.05    
-0.05    -0.1    -0.1    -0.1    -0.1    
-0.1    -0.1    -0.15    -0.15    -0.15    
-0.15    -0.15    -0.15    -0.2    -0.2    
-0.2    -0.2    -0.2    -0.2    -0.25    
-0.25    -0.25    -0.25    -0.25    -0.25    
-0.3    -0.3    -0.3    -0.3    -0.3    
-0.3    -0.35    -0.35    -0.35    -0.35    
-0.35    -0.35    -0.4    -0.4    -0.4    
-0.4    -0.4    -0.4    -0.45    -0.45    
-0.45    -0.45    -0.45    -0.45    -0.5    
-0.5    -0.5    -0.5    -0.5    -0.5    
0.0    0.0    0.0    0.0    0.0    
0.0    -0.05    -0.05    -0.05    -0.05    
-0.05    -0.05    -0.1    -0.1    -0.1    
-0.1    -0.1    -0.1    -0.15    -0.15    
-0.15    -0.15    -0.15    -0.15    -0.2    
-0.2    -0.2    -0.2    -0.2    -0.2    
-0.25    -0.25    -0.25    -0.25    -0.25    
-0.25    -0.3    -0.3    -0.3    -0.3    
-0.3    -0.3    -0.35    -0.35    -0.35    
-0.35    -0.35    -0.35    -0.4    -0.4    
-0.4    -0.4    -0.4    -0.4    -0.45    
-0.45    -0.45    -0.45    -0.45    -0.45    
-0.5    -0.5    -0.5    -0.5    -0.5    
-0.5    
380.090622399    384.583469275    384.940989641    387.541881729    374.607812042    
380.544888623    383.892197831    367.85973619    375.174691216    379.423822887    
359.506082566    368.556757614    373.900817417    360.351141    367.02529966    
385.651797298    387.830544873    381.449559307    384.259261746    376.306123877    
379.882333504    369.951931018    374.465275957    362.048858906    367.710648123    
386.70666796    388.404503743    382.79568781    384.99036075    377.995553267    
380.797638272    372.044667057    375.595399929    364.61038862    369.088016161    
388.090007271    389.256403018    384.566975208    386.078435553    380.22858221    
382.164743003    374.827117278    377.291267845    368.042307747    371.167433517    
389.778128412    390.373769422    386.736837198    387.510536124    382.978127846    
383.972411842    378.27641722    379.547278684    372.334642684    373.955615262    
391.737596432    391.737596426    389.265408291    389.265408283    386.199174149    
386.19917414    382.345749145    382.345749139    377.446064697    377.446064686    
393.924144332    393.320977474    392.097289049    391.311016829    389.824371449    
388.808976336    386.956072159    385.64948799    383.288763293    381.606737027    
396.282671197    395.088200955    395.160928437    393.602665311    393.762033956    
391.747502469    391.991180116    389.394858157    389.717426403    386.367292818    
398.748692627    396.994727331    398.370373813    396.082450067    397.89799372    
394.940450255    397.299001222    393.48754039    396.528125492    391.609631555    
398.988356622    398.680661331    398.294989984    397.803465589    397.166643899    
390.84079934    388.145400536    384.835953755    380.729952535    375.592640249    
391.052864881    388.415245004    385.173311044    381.145699256    376.098072967    
391.474554163    388.952765955    385.846868622    381.97827038    377.114189111    
392.100522531    389.752882677    386.853151294    383.228084939    378.649031729    
392.921681684    390.806216508    388.184156948    384.891510821    380.708465604    
393.924144339    392.097289056    389.82437146    386.956072165    383.288763292    
395.088200964    393.602665321    391.74750248    389.394858166    386.367292821    
396.387635661    395.289532521    393.913693325    392.161253133    389.892795797    
397.789695421    397.115267755    396.268184669    395.185656676    393.778038243    
399.255945231    399.028458833    398.742358992    398.376083627    397.89863705    
394.397135906    392.742806818    390.707281836    388.174652054    384.993712977    
394.526788495    392.907865918    390.913766154    388.429312704    385.303602417    
394.784615266    393.236684537    391.326074804    388.939380441    385.926752937    
395.167375191    393.726204251    391.942171582    389.70527758    386.868394576    
395.669545855    394.370752571    392.75727979    390.7250066    388.132547639    
396.282671208    395.16092845    393.762033969    391.991180126    389.717426405    
396.994727341    396.082450077    394.940450264    393.487540398    391.60963156    
397.789695423    397.115267758    396.268184672    395.185656679    393.778038243    
398.647536516    398.233285014    397.711681003    397.042839995    396.169111456    
399.544713066    399.404978524    399.228795833    399.002467076    398.706056807    
398.11415794    397.556349954    396.86923045    396.013000282    394.93534326    
398.157784202    397.611904539    396.938750655    396.098775946    395.039773744    
398.244541843    397.722581054    397.077577506    396.270594252    395.24979851    
398.37334506    397.887358962    397.285041784    396.528627364    395.567234274    
398.542341715    398.104340592    397.559557077    396.872243649    395.99351328    
398.748692633    398.370373819    397.897993725    397.299001227    396.528125494    
398.988356625    398.680661335    398.294989988    397.803465592    397.1666439    
399.255945233    399.028458835    398.742358994    398.376083628    397.89863705    
399.544713066    399.404978524    399.228795833    399.002467076    398.706056806    
399.84673306    399.799596917    399.740085232    399.66349327    399.562926776    

-0.175    -0.225    -0.225    -0.225    -0.125    
-0.175    -0.175    -0.075    -0.125    -0.125    
-0.025    -0.075    -0.075    -0.025    -0.025    
-0.225    -0.225    -0.175    -0.175    -0.125    
-0.125    -0.075    -0.075    -0.025    -0.025    
-0.225    -0.225    -0.175    -0.175    -0.125    
-0.125    -0.075    -0.075    -0.025    -0.025    
-0.225    -0.225    -0.175    -0.175    -0.125    
-0.125    -0.075    -0.075    -0.025    -0.025    
-0.225    -0.225    -0.175    -0.175    -0.125    
-0.125    -0.075    -0.075    -0.025    -0.025    
-0.225    -0.225    -0.175    -0.175    -0.125    
-0.125    -0.075    -0.075    -0.025    -0.025    
-0.225    -0.225    -0.175    -0.175    -0.125    
-0.125    -0.075    -0.075    -0.025    -0.025    
-0.225    -0.225    -0.175    -0.175    -0.125    
-0.125    -0.075    -0.075    -0.025    -0.025    
-0.225    -0.225    -0.175    -0.175    -0.125    
-0.125    -0.075    -0.075    -0.025    -0.025    
-0.225    -0.175    -0.125    -0.075    -0.025    
-0.225    -0.175    -0.125    -0.075    -0.025    
-0.225    -0.175    -0.125    -0.075    -0.025    
-0.225    -0.175    -0.125    -0.075    -0.025    
-0.225    -0.175    -0.125    -0.075    -0.025    
-0.225    -0.175    -0.125    -0.075    -0.025    
-0.225    -0.175    -0.125    -0.075    -0.025    
-0.225    -0.175    -0.125    -0.075    -0.025    
-0.225    -0.175    -0.125    -0.075    -0.025    
-0.225    -0.175    -0.125    -0.075    -0.025    
-0.225    -0.175    -0.125    -0.075    -0.025    
-0.225    -0.175    -0.125    -0.075    -0.025    
-0.225    -0.175    -0.125    -0.075    -0.025    
-0.225    -0.175    -0.125    -0.075    -0.025    
-0.225    -0.175    -0.125    -0.075    -0.025    
-0.225    -0.175    -0.125    -0.075    -0.025    
-0.225    -0.175    -0.125    -0.075    -0.025    
-0.225    -0.175    -0.125    -0.075    -0.025    
-0.225    -0.175    -0.125    -0.075    -0.025    
-0.225    -0.175    -0.125    -0.075    -0.025    
-0.225    -0.175    -0.125    -0.075    -0.025    
-0.225    -0.175    -0.125    -0.075    -0.025    
-0.225    -0.175    -0.125    -0.075    -0.025    
-0.225    -0.175    -0.125    -0.075    -0.025    
-0.225    -0.175    -0.125    -0.075    -0.025    
-0.225    -0.175    -0.125    -0.075    -0.025    
-0.225    -0.175    -0.125    -0.075    -0.025    
-0.225    -0.175    -0.125    -0.075    -0.025    
-0.225    -0.175    -0.125    -0.075    -0.025    
-0.225    -0.175    -0.125    -0.075    -0.025    
-0.225    -0.175    -0.125    -0.075    -0.025    

67     74     2     3     69     75     5     6     
3     2     74     67     4     1     73     68     
74     73     1     2     80     79     13     14     
73     74     67     68     139     140     133     134     
69     75     5     6     70     76     7     8     
75     74     2     5     81     80     14     15     
74     75     69     67     140     141     135     133     
70     76     7     8     71     77     9     10     
76     75     5     7     82     81     15     16     
75     76     70     69     141     142     136     135     
71     77     9     10     72     78     11     12     
77     76     7     9     83     82     16     17     
76     77     71     70     142     143     137     136     
78     77     9     11     84     83     17     18     
77     78     72     71     143     144     138     137     
80     79     13     14     86     85     19     20     
79     80     74     73     145     146     140     139     
81     80     14     15     87     86     20     21     
80     81     75     74     146     147     141     140     
82     81     15     16     88     87     21     22     
81     82     76     75     147     148     142     141     
83     82     16     17     89     88     22     23     
82     83     77     76     148     149     143     142     
84     83     17     18     90     89     23     24     
83     84     78     77     149     150     144     143     
86     85     19     20     92     91     25     26     
85     86     80     79     151     152     146     145     
87     86     20     21     93     92     26     27     
86     87     81     80     152     153     147     146     
88     87     21     22     94     93     27     28     
87     88     82     81     153     154     148     147     
89     88     22     23     95     94     28     29     
88     89     83     82     154     155     149     148     
90     89     23     24     96     95     29     30     
89     90     84     83     155     156     150     149     
92     91     25     26     98     97     31     32     
91     92     86     85     157     158     152     151     
93     92     26     27     99     98     32     33     
92     93     87     86     158     159     153     152     
94     93     27     28     100     99     33     34     
93     94     88     87     159     160     154     153     
95     94     28     29     101     100     34     35     
94     95     89     88     160     161     155     154     
96     95     29     30     102     101     35     36     
95     96     90     89     161     162     156     155     
98     97     31     32     104     103     37     38     
97     98     92     91     163     164     158     157     
99     98     32     33     105     104     38     39     
98     99     93     92     164     165     159     158     
100     99     33     34     106     105     39     40     
99     100     94     93     165     166     160     159     
101     100     34     35     107     106     40     41     
100     101     95     94     166     167     161     160     
102     101     35     36     108     107     41     42     
101     102     96     95     167     168     162     161     
104     103     37     38     110     109     43     44     
103     104     98     97     169     170     164     163     
105     104     38     39     111     110     44     45     
104     105     99     98     170     171     165     164     
106     105     39     40     112     111     45     46     
105     106     100     99     171     172     166     165     
107     106     40     41     113     112     46     47     
106     107     101     100     172     173     167     166     
108     107     41     42     114     113     47     48     
107     108     102     101     173     174     168     167     
110     109     43     44     116     115     49     50     
109     110     104     103     175     176     170     169     
111     110     44     45     117     116     50     51     
110     111     105     104     176     177     171     170     
112     111     45     46     118     117     51     52     
111     112     106     105     177     178     172     171     
113     112     46     47     119     118     52     53     
112     113     107     106     178     179     173     172     
114     113     47     48     120     119     53     54     
113     114     108     107     179     180     174     173     
116     115     49     50     122     121     55     56     
115     116     110     109     181     182     176     175     
117     116     50     51     123     122     56     57     
116     117     111     110     182     183     177     176     
118     117     51     52     124     123     57     58     
117     118     112     111     183     184     178     177     
119     118     52     53     125     124     58     59     
118     119     113     112     184     185     179     178     
120     119     53     54     126     125     59     60     
119     120     114     113     185     186     180     179     
122     121     55     56     128     127     61     62     
121     122     116     115     187     188     182     181     
123     122     56     57     129     128     62     63     
122     123     117     116     188     189     183     182     
124     123     57     58     130     129     63     64     
123     124     118     117     189     190     184     183     
125     124     58     59     131     130     64     65     
124     125     119     118     190     191     185     184     
126     125     59     60     132     131     65     66     
125     126     120     119     191     192     186     185     
127     128     122     121     193     194     188     187     
128     129     123     122     194     195     189     188     
129     130     124     123     195     196     190     189     
130     131     125     124     196     197     191     190     
131     132     126     125     197     198     192     191     
139     140     133     134     205     206     199     200     
140     141     135     133     206     207     201     199     
141     142     136     135     207     208     202     201     
142     143     137     136     208     209     203     202     
143     144     138     137     209     210     204     203     
145     146     140     139     211     212     206     205     
146     147     141     140     212     213     207     206     
147     148     142     141     213     214     208     207     
148     149     143     142     214     215     209     208     
149     150     144     143     215     216     210     209     
151     152     146     145     217     218     212     211     
152     153     147     146     218     219     213     212     
153     154     148     147     219     220     214     213     
154     155     149     148     220     221     215     214     
155     156     150     149     221     222     216     215     
157     158     152     151     223     224     218     217     
158     159     153     152     224     225     219     218     
159     160     154     153     225     226     220     219     
160     161     155     154     226     227     221     220     
161     162     156     155     227     228     222     221     
163     164     158     157     229     230     224     223     
164     165     159     158     230     231     225     224     
165     166     160     159     231     232     226     225     
166     167     161     160     232     233     227     226     
167     168     162     161     233     234     228     227     
169     170     164     163     235     236     230     229     
170     171     165     164     236     237     231     230     
171     172     166     165     237     238     232     231     
172     173     167     166     238     239     233     232     
173     174     168     167     239     240     234     233     
175     176     170     169     241     242     236     235     
176     177     171     170     242     243     237     236     
177     178     172     171     243     244     238     237     
178     179     173     172     244     245     239     238     
179     180     174     173     245     246     240     239     
181     182     176     175     247     248     242     241     
182     183     177     176     248     249     243     242     
183     184     178     177     249     250     244     243     
184     185     179     178     250     251     245     244     
185     186     180     179     251     252     246     245     
187     188     182     181     253     254     248     247     
188     189     183     182     254     255     249     248     
189     190     184     183     255     256     250     249     
190     191     185     184     256     257     251     250     
191     192     186     185     257     258     252     251     
193     194     188     187     259     260     254     253     
194     195     189     188     260     261     255     254     
195     196     190     189     261     262     256     255     
196     197     191     190     262     263     257     256     
197     198     192     191     263     264     258     257     
205     206     199     200     271     272     265     266     
206     207     201     199     272     273     267     265     
207     208     202     201     273     274     268     267     
208     209     203     202     274     275     269     268     
209     210     204     203     275     276     270     269     
211     212     206     205     277     278     272     271     
212     213     207     206     278     279     273     272     
213     214     208     207     279     280     274     273     
214     215     209     208     280     281     275     274     
215     216     210     209     281     282     276     275     
217     218     212     211     283     284     278     277     
218     219     213     212     284     285     279     278     
219     220     214     213     285     286     280     279     
220     221     215     214     286     287     281     280     
221     222     216     215     287     288     282     281     
223     224     218     217     289     290     284     283     
224     225     219     218     290     291     285     284     
225     226     220     219     291     292     286     285     
226     227     221     220     292     293     287     286     
227     228     222     221     293     294     288     287     
229     230     224     223     295     296     290     289     
230     231     225     224     296     297     291     290     
231     232     226     225     297     298     292     291     
232     233     227     226     298     299     293     292     
233     234     228     227     299     300     294     293     
235     236     230     229     301     302     296     295     
236     237     231     230     302     303     297     296     
237     238     232     231     303     304     298     297     
238     239     233     232     304     305     299     298     
239     240     234     233     305     306     300     299     
241     242     236     235     307     308     302     301     
242     243     237     236     308     309     303     302     
243     244     238     237     309     310     304     303     
244     245     239     238     310     311     305     304     
245     246     240     239     311     312     306     305     
247     248     242     241     313     314     308     307     
248     249     243     242     314     315     309     308     
249     250     244     243     315     316     310     309     
250     251     245     244     316     317     311     310     
251     252     246     245     317     318     312     311     
253     254     248     247     319     320     314     313     
254     255     249     248     320     321     315     314     
255     256     250     249     321     322     316     315     
256     257     251     250     322     323     317     316     
257     258     252     251     323     324     318     317     
259     260     254     253     325     326     320     319     
260     261     255     254     326     327     321     320     
261     262     256     255     327     328     322     321     
262     263     257     256     328     329     323     322     
263     264     258     257     329     330     324     323     
271     272     265     266     337     338     331     332     