Title = " tecplot file for 2D Cavity problem " 
variables = "x", "y", "z", "velX", "cellCentroidY" 
Zone T = "nmesh0" N = 396 E = 250 DATAPACKING = BLOCK, VARLOCATION = ([4-5]=CELLCENTERED), ZONETYPE=FEBRICK
0.0    0.0    0.0    0.0    0.0    
0.0    2.7755575616e-17    0.0    2.7755575616e-17    0.0    
1.9081958236e-17    0.0    0.0    0.0    0.0    
0.0    0.0    1.0408340856e-17    0.0    0.0    
0.0    -2.7755575616e-17    -2.7755575616e-17    -1.3877787808e-17    0.0    
0.0    -2.7755575616e-17    -2.7755575616e-17    -2.7755575616e-17    -2.7755575616e-17    
0.0    0.0    0.0    0.0    0.0    
-6.9388939039e-18    0.0    0.0    0.0    -2.7755575616e-17    
-2.7755575616e-17    -1.3877787808e-17    2.7755575616e-17    0.0    0.0    
0.0    0.0    2.7755575616e-17    0.0    0.0    
0.0    0.0    0.0    0.0    0.0    
0.0    0.0    -2.7755575616e-17    -2.7755575616e-17    -1.3877787808e-17    
0.0    0.0    0.0    0.0    0.0    
0.0    -0.05    -0.05    -0.05    -0.05    
-0.05    -0.05    -0.05    -0.05    -0.05    
-0.05    -0.05    -0.05    -0.05    -0.05    
-0.05    -0.05    -0.05    -0.05    -0.05    
-0.05    -0.05    -0.05    -0.05    -0.05    
-0.05    -0.05    -0.05    -0.05    -0.05    
-0.05    -0.05    -0.05    -0.05    -0.05    
-0.05    -0.05    -0.05    -0.05    -0.05    
-0.05    -0.05    -0.05    -0.05    -0.05    
-0.05    -0.05    -0.05    -0.05    -0.05    
-0.05    -0.05    -0.05    -0.05    -0.05    
-0.05    -0.05    -0.05    -0.05    -0.05    
-0.05    -0.05    -0.05    -0.05    -0.05    
-0.05    -0.05    -0.1    -0.1    -0.1    
-0.1    -0.1    -0.1    -0.1    -0.1    
-0.1    -0.1    -0.1    -0.1    -0.1    
-0.1    -0.1    -0.1    -0.1    -0.1    
-0.1    -0.1    -0.1    -0.1    -0.1    
-0.1    -0.1    -0.1    -0.1    -0.1    
-0.1    -0.1    -0.1    -0.1    -0.1    
-0.1    -0.1    -0.1    -0.1    -0.1    
-0.1    -0.1    -0.1    -0.1    -0.1    
-0.1    -0.1    -0.1    -0.1    -0.1    
-0.1    -0.1    -0.1    -0.1    -0.1    
-0.1    -0.1    -0.1    -0.1    -0.1    
-0.1    -0.1    -0.1    -0.1    -0.1    
-0.1    -0.1    -0.1    -0.15    -0.15    
-0.15    -0.15    -0.15    -0.15    -0.15    
-0.15    -0.15    -0.15    -0.15    -0.15    
-0.15    -0.15    -0.15    -0.15    -0.15    
-0.15    -0.15    -0.15    -0.15    -0.15    
-0.15    -0.15    -0.15    -0.15    -0.15    
-0.15    -0.15    -0.15    -0.15    -0.15    
-0.15    -0.15    -0.15    -0.15    -0.15    
-0.15    -0.15    -0.15    -0.15    -0.15    
-0.15    -0.15    -0.15    -0.15    -0.15    
-0.15    -0.15    -0.15    -0.15    -0.15    
-0.15    -0.15    -0.15    -0.15    -0.15    
-0.15    -0.15    -0.15    -0.15    -0.15    
-0.15    -0.15    -0.15    -0.15    -0.2    
-0.2    -0.2    -0.2    -0.2    -0.2    
-0.2    -0.2    -0.2    -0.2    -0.2    
-0.2    -0.2    -0.2    -0.2    -0.2    
-0.2    -0.2    -0.2    -0.2    -0.2    
-0.2    -0.2    -0.2    -0.2    -0.2    
-0.2    -0.2    -0.2    -0.2    -0.2    
-0.2    -0.2    -0.2    -0.2    -0.2    
-0.2    -0.2    -0.2    -0.2    -0.2    
-0.2    -0.2    -0.2    -0.2    -0.2    
-0.2    -0.2    -0.2    -0.2    -0.2    
-0.2    -0.2    -0.2    -0.2    -0.2    
-0.2    -0.2    -0.2    -0.2    -0.2    
-0.2    -0.2    -0.2    -0.2    -0.2    
-0.25    -0.25    -0.25    -0.25    -0.25    
-0.25    -0.25    -0.25    -0.25    -0.25    
-0.25    -0.25    -0.25    -0.25    -0.25    
-0.25    -0.25    -0.25    -0.25    -0.25    
-0.25    -0.25    -0.25    -0.25    -0.25    
-0.25    -0.25    -0.25    -0.25    -0.25    
-0.25    -0.25    -0.25    -0.25    -0.25    
-0.25    -0.25    -0.25    -0.25    -0.25    
-0.25    -0.25    -0.25    -0.25    -0.25    
-0.25    -0.25    -0.25    -0.25    -0.25    
-0.25    -0.25    -0.25    -0.25    -0.25    
-0.25    -0.25    -0.25    -0.25    -0.25    
-0.25    -0.25    -0.25    -0.25    -0.25    
-0.25    
0.25    0.3    0.3    0.25    0.35    
0.35    0.4    0.4    0.45    0.45    
0.5    0.5    0.25    0.3    0.35    
0.4    0.45    0.5    0.25    0.3    
0.35    0.4    0.45    0.5    0.25    
0.3    0.35    0.4    0.45    0.5    
0.25    0.3    0.35    0.4    0.45    
0.5    0.25    0.3    0.35    0.4    
0.45    0.5    0.25    0.3    0.35    
0.4    0.45    0.5    0.25    0.3    
0.35    0.4    0.45    0.5    0.25    
0.3    0.35    0.4    0.45    0.5    
0.25    0.3    0.35    0.4    0.45    
0.5    0.25    0.25    0.3    0.3    
0.35    0.35    0.4    0.4    0.45    
0.45    0.5    0.5    0.25    0.3    
0.35    0.4    0.45    0.5    0.25    
0.3    0.35    0.4    0.45    0.5    
0.25    0.3    0.35    0.4    0.45    
0.5    0.25    0.3    0.35    0.4    
0.45    0.5    0.25    0.3    0.35    
0.4    0.45    0.5    0.25    0.3    
0.35    0.4    0.45    0.5    0.25    
0.3    0.35    0.4    0.45    0.5    
0.25    0.3    0.35    0.4    0.45    
0.5    0.25    0.3    0.35    0.4    
0.45    0.5    0.25    0.25    0.3    
0.3    0.35    0.35    0.4    0.4    
0.45    0.45    0.5    0.5    0.25    
0.3    0.35    0.4    0.45    0.5    
0.25    0.3    0.35    0.4    0.45    
0.5    0.25    0.3    0.35    0.4    
0.45    0.5    0.25    0.3    0.35    
0.4    0.45    0.5    0.25    0.3    
0.35    0.4    0.45    0.5    0.25    
0.3    0.35    0.4    0.45    0.5    
0.25    0.3    0.35    0.4    0.45    
0.5    0.25    0.3    0.35    0.4    
0.45    0.5    0.25    0.3    0.35    
0.4    0.45    0.5    0.25    0.25    
0.3    0.3    0.35    0.35    0.4    
0.4    0.45    0.45    0.5    0.5    
0.25    0.3    0.35    0.4    0.45    
0.5    0.25    0.3    0.35    0.4    
0.45    0.5    0.25    0.3    0.35    
0.4    0.45    0.5    0.25    0.3    
0.35    0.4    0.45    0.5    0.25    
0.3    0.35    0.4    0.45    0.5    
0.25    0.3    0.35    0.4    0.45    
0.5    0.25    0.3    0.35    0.4    
0.45    0.5    0.25    0.3    0.35    
0.4    0.45    0.5    0.25    0.3    
0.35    0.4    0.45    0.5    0.25    
0.25    0.3    0.3    0.35    0.35    
0.4    0.4    0.45    0.45    0.5    
0.5    0.25    0.3    0.35    0.4    
0.45    0.5    0.25    0.3    0.35    
0.4    0.45    0.5    0.25    0.3    
0.35    0.4    0.45    0.5    0.25    
0.3    0.35    0.4    0.45    0.5    
0.25    0.3    0.35    0.4    0.45    
0.5    0.25    0.3    0.35    0.4    
0.45    0.5    0.25    0.3    0.35    
0.4    0.45    0.5    0.25    0.3    
0.35    0.4    0.45    0.5    0.25    
0.3    0.35    0.4    0.45    0.5    
0.25    0.25    0.3    0.3    0.35    
0.35    0.4    0.4    0.45    0.45    
0.5    0.5    0.25    0.3    0.35    
0.4    0.45    0.5    0.25    0.3    
0.35    0.4    0.45    0.5    0.25    
0.3    0.35    0.4    0.45    0.5    
0.25    0.3    0.35    0.4    0.45    
0.5    0.25    0.3    0.35    0.4    
0.45    0.5    0.25    0.3    0.35    
0.4    0.45    0.5    0.25    0.3    
0.35    0.4    0.45    0.5    0.25    
0.3    0.35    0.4    0.45    0.5    
0.25    0.3    0.35    0.4    0.45    
0.5    
0.45    0.45    0.5    0.5    0.45    
0.5    0.45    0.5    0.45    0.5    
0.45    0.5    0.4    0.4    0.4    
0.4    0.4    0.4    0.35    0.35    
0.35    0.35    0.35    0.35    0.3    
0.3    0.3    0.3    0.3    0.3    
0.25    0.25    0.25    0.25    0.25    
0.25    0.2    0.2    0.2    0.2    
0.2    0.2    0.15    0.15    0.15    
0.15    0.15    0.15    0.1    0.1    
0.1    0.1    0.1    0.1    0.05    
0.05    0.05    0.05    0.05    0.05    
0.0    0.0    0.0    0.0    0.0    
0.0    0.5    0.45    0.5    0.45    
0.5    0.45    0.5    0.45    0.5    
0.45    0.45    0.5    0.4    0.4    
0.4    0.4    0.4    0.4    0.35    
0.35    0.35    0.35    0.35    0.35    
0.3    0.3    0.3    0.3    0.3    
0.3    0.25    0.25    0.25    0.25    
0.25    0.25    0.2    0.2    0.2    
0.2    0.2    0.2    0.15    0.15    
0.15    0.15    0.15    0.15    0.1    
0.1    0.1    0.1    0.1    0.1    
0.05    0.05    0.05    0.05    0.05    
0.05    0.0    0.0    0.0    0.0    
0.0    0.0    0.5    0.45    0.5    
0.45    0.5    0.45    0.5    0.45    
0.5    0.45    0.45    0.5    0.4    
0.4    0.4    0.4    0.4    0.4    
0.35    0.35    0.35    0.35    0.35    
0.35    0.3    0.3    0.3    0.3    
0.3    0.3    0.25    0.25    0.25    
0.25    0.25    0.25    0.2    0.2    
0.2    0.2    0.2    0.2    0.15    
0.15    0.15    0.15    0.15    0.15    
0.1    0.1    0.1    0.1    0.1    
0.1    0.05    0.05    0.05    0.05    
0.05    0.05    0.0    0.0    0.0    
0.0    0.0    0.0    0.5    0.45    
0.5    0.45    0.5    0.45    0.5    
0.45    0.5    0.45    0.45    0.5    
0.4    0.4    0.4    0.4    0.4    
0.4    0.35    0.35    0.35    0.35    
0.35    0.35    0.3    0.3    0.3    
0.3    0.3    0.3    0.25    0.25    
0.25    0.25    0.25    0.25    0.2    
0.2    0.2    0.2    0.2    0.2    
0.15    0.15    0.15    0.15    0.15    
0.15    0.1    0.1    0.1    0.1    
0.1    0.1    0.05    0.05    0.05    
0.05    0.05    0.05    0.0    0.0    
0.0    0.0    0.0    0.0    0.5    
0.45    0.5    0.45    0.5    0.45    
0.5    0.45    0.5    0.45    0.45    
0.5    0.4    0.4    0.4    0.4    
0.4    0.4    0.35    0.35    0.35    
0.35    0.35    0.35    0.3    0.3    
0.3    0.3    0.3    0.3    0.25    
0.25    0.25    0.25    0.25    0.25    
0.2    0.2    0.2    0.2    0.2    
0.2    0.15    0.15    0.15    0.15    
0.15    0.15    0.1    0.1    0.1    
0.1    0.1    0.1    0.05    0.05    
0.05    0.05    0.05    0.05    0.0    
0.0    0.0    0.0    0.0    0.0    
0.5    0.45    0.5    0.45    0.5    
0.45    0.5    0.45    0.5    0.45    
0.45    0.5    0.4    0.4    0.4    
0.4    0.4    0.4    0.35    0.35    
0.35    0.35    0.35    0.35    0.3    
0.3    0.3    0.3    0.3    0.3    
0.25    0.25    0.25    0.25    0.25    
0.25    0.2    0.2    0.2    0.2    
0.2    0.2    0.15    0.15    0.15    
0.15    0.15    0.15    0.1    0.1    
0.1    0.1    0.1    0.1    0.05    
0.05    0.05    0.05    0.05    0.05    
0.0    0.0    0.0    0.0    0.0    
0.0    
376.200619964    366.693450511    349.520294731    311.181340393    200.639247439    
331.841919096    307.546826104    269.55946056    205.634585124    92.6142559729    
294.57348882    261.504389807    215.043828677    148.852203531    56.6802129017    
265.260834784    227.905960422    179.467810343    117.518883562    41.7466766416    
243.144259309    204.126586185    156.349328727    99.3033402493    34.2850642767    
226.945995813    187.575521756    141.227436684    88.2098681241    30.0753531606    
215.429811923    176.255192359    131.327616904    81.2680033657    27.541671717    
207.603877891    168.774986118    124.978535464    76.9400883081    25.9944012115    
202.75788187    164.229696021    121.194110323    74.4042350978    25.0979744909    
200.442839131    162.081784444    119.424906926    73.2296228346    24.6851143515    
376.411609392    366.892962272    349.687516917    311.293915068    200.679135709    
332.464613995    308.134910567    270.051768185    205.965665171    92.7314903775    
295.578956826    262.451845054    215.835279169    149.383507402    56.8681412686    
266.606286638    229.170181065    180.521050344    118.224387059    41.9958991166    
244.778905217    205.657860789    157.621470212    100.153556585    34.5850156214    
228.816262148    189.322397849    142.674847968    89.1752071984    30.4155148576    
217.482998844    178.168025219    132.908916716    82.3207718051    27.9122725803    
209.790085743    170.807629018    126.655875726    78.0552664566    26.3866727701    
205.030476982    166.339717517    122.933178191    75.5593795929    25.5040962998    
202.757881833    164.229695996    121.194110301    74.4042350829    25.0979744839    
376.859905771    367.32324852    350.053678167    311.543747287    200.768432786    
333.786293566    309.401447826    271.127776736    206.698724879    92.9932345222    
297.709133698    264.487352932    217.559675358    150.555368218    57.2858790815    
269.4501792    231.878083172    182.807174219    119.773425348    42.5470732242    
248.225695269    208.927624259    160.372176877    102.011919179    35.2450745154    
232.750903466    193.04186929    145.793659167    91.276683857    31.1607554438    
221.794050423    182.231016605    136.306362687    84.6049645212    28.7212769141    
214.373483556    175.117083864    130.251728532    80.4688105492    27.2406728436    
209.790085698    170.807628988    126.655875705    78.0552664425    26.3866727649    
207.6038778    168.774986059    124.978535412    76.9400882776    25.9944012001    
377.602354378    368.054745606    350.693457706    311.991480112    200.931344773    
335.971162727    311.549104656    273.001366007    208.006557343    93.468114531    
301.219188858    267.923932499    220.545100875    152.630997237    58.037336333    
274.117729396    236.425987374    186.738634208    122.494630185    43.5292345052    
253.859540726    214.390060193    165.071214232    105.250597889    36.4107581384    
239.157677824    199.22561443    151.090014327    94.9135976276    32.4667379601    
228.791096754    188.958708205    142.047890575    88.5358813048    30.1302730047    
221.794050352    182.231016552    136.306362649    84.6049644956    28.7212769053    
217.482998723    178.168025133    132.908916653    82.3207717641    27.9122725664    
215.429811749    176.255192232    131.327616809    81.268003303    27.5416716967    
378.734741277    369.215053982    351.75293405    312.765253673    201.222730751    
339.294171551    314.941973285    276.086198734    210.248661295    94.3083287457    
306.532107301    273.316860313    225.41599994    156.146990463    59.347128972    
281.141995076    243.507484786    193.087698357    127.044891914    45.2148436521    
262.28847509    222.830380174    172.585801895    110.60146797    38.3836620965    
248.692041766    208.715356782    159.488109918    100.861670423    34.6517815004    
239.157677738    199.22561436    151.090014275    94.9135975927    32.4667379472    
232.750903307    193.041869168    145.793659076    91.2766837974    31.1607554226    
228.816261936    189.32239769    142.674847847    89.1752071198    30.4155148308    
226.945995536    187.575521543    141.227436521    88.2098680253    30.0753531257    

0.275    0.325    0.375    0.425    0.475    
0.275    0.325    0.375    0.425    0.475    
0.275    0.325    0.375    0.425    0.475    
0.275    0.325    0.375    0.425    0.475    
0.275    0.325    0.375    0.425    0.475    
0.275    0.325    0.375    0.425    0.475    
0.275    0.325    0.375    0.425    0.475    
0.275    0.325    0.375    0.425    0.475    
0.275    0.325    0.375    0.425    0.475    
0.275    0.325    0.375    0.425    0.475    
0.275    0.325    0.375    0.425    0.475    
0.275    0.325    0.375    0.425    0.475    
0.275    0.325    0.375    0.425    0.475    
0.275    0.325    0.375    0.425    0.475    
0.275    0.325    0.375    0.425    0.475    
0.275    0.325    0.375    0.425    0.475    
0.275    0.325    0.375    0.425    0.475    
0.275    0.325    0.375    0.425    0.475    
0.275    0.325    0.375    0.425    0.475    
0.275    0.325    0.375    0.425    0.475    
0.275    0.325    0.375    0.425    0.475    
0.275    0.325    0.375    0.425    0.475    
0.275    0.325    0.375    0.425    0.475    
0.275    0.325    0.375    0.425    0.475    
0.275    0.325    0.375    0.425    0.475    
0.275    0.325    0.375    0.425    0.475    
0.275    0.325    0.375    0.425    0.475    
0.275    0.325    0.375    0.425    0.475    
0.275    0.325    0.375    0.425    0.475    
0.275    0.325    0.375    0.425    0.475    
0.275    0.325    0.375    0.425    0.475    
0.275    0.325    0.375    0.425    0.475    
0.275    0.325    0.375    0.425    0.475    
0.275    0.325    0.375    0.425    0.475    
0.275    0.325    0.375    0.425    0.475    
0.275    0.325    0.375    0.425    0.475    
0.275    0.325    0.375    0.425    0.475    
0.275    0.325    0.375    0.425    0.475    
0.275    0.325    0.375    0.425    0.475    
0.275    0.325    0.375    0.425    0.475    
0.275    0.325    0.375    0.425    0.475    
0.275    0.325    0.375    0.425    0.475    
0.275    0.325    0.375    0.425    0.475    
0.275    0.325    0.375    0.425    0.475    
0.275    0.325    0.375    0.425    0.475    
0.275    0.325    0.375    0.425    0.475    
0.275    0.325    0.375    0.425    0.475    
0.275    0.325    0.375    0.425    0.475    
0.275    0.325    0.375    0.425    0.475    
0.275    0.325    0.375    0.425    0.475    

3     2     70     69     4     1     68     67     
69     70     2     3     71     72     5     6     
71     72     5     6     73     74     7     8     
73     74     7     8     75     76     9     10     
75     76     9     10     78     77     11     12     
70     68     1     2     80     79     13     14     
72     70     2     5     81     80     14     15     
74     72     5     7     82     81     15     16     
76     74     7     9     83     82     16     17     
77     76     9     11     84     83     17     18     
80     79     13     14     86     85     19     20     
81     80     14     15     87     86     20     21     
82     81     15     16     88     87     21     22     
83     82     16     17     89     88     22     23     
84     83     17     18     90     89     23     24     
86     85     19     20     92     91     25     26     
87     86     20     21     93     92     26     27     
88     87     21     22     94     93     27     28     
89     88     22     23     95     94     28     29     
90     89     23     24     96     95     29     30     
92     91     25     26     98     97     31     32     
93     92     26     27     99     98     32     33     
94     93     27     28     100     99     33     34     
95     94     28     29     101     100     34     35     
96     95     29     30     102     101     35     36     
98     97     31     32     104     103     37     38     
99     98     32     33     105     104     38     39     
100     99     33     34     106     105     39     40     
101     100     34     35     107     106     40     41     
102     101     35     36     108     107     41     42     
104     103     37     38     110     109     43     44     
105     104     38     39     111     110     44     45     
106     105     39     40     112     111     45     46     
107     106     40     41     113     112     46     47     
108     107     41     42     114     113     47     48     
110     109     43     44     116     115     49     50     
111     110     44     45     117     116     50     51     
112     111     45     46     118     117     51     52     
113     112     46     47     119     118     52     53     
114     113     47     48     120     119     53     54     
116     115     49     50     122     121     55     56     
117     116     50     51     123     122     56     57     
118     117     51     52     124     123     57     58     
119     118     52     53     125     124     58     59     
120     119     53     54     126     125     59     60     
122     121     55     56     128     127     61     62     
123     122     56     57     129     128     62     63     
124     123     57     58     130     129     63     64     
125     124     58     59     131     130     64     65     
126     125     59     60     132     131     65     66     
68     70     69     67     134     136     135     133     
70     72     71     69     136     138     137     135     
72     74     73     71     138     140     139     137     
74     76     75     73     140     142     141     139     
76     77     78     75     142     143     144     141     
79     80     70     68     145     146     136     134     
80     81     72     70     146     147     138     136     
81     82     74     72     147     148     140     138     
82     83     76     74     148     149     142     140     
83     84     77     76     149     150     143     142     
85     86     80     79     151     152     146     145     
86     87     81     80     152     153     147     146     
87     88     82     81     153     154     148     147     
88     89     83     82     154     155     149     148     
89     90     84     83     155     156     150     149     
91     92     86     85     157     158     152     151     
92     93     87     86     158     159     153     152     
93     94     88     87     159     160     154     153     
94     95     89     88     160     161     155     154     
95     96     90     89     161     162     156     155     
97     98     92     91     163     164     158     157     
98     99     93     92     164     165     159     158     
99     100     94     93     165     166     160     159     
100     101     95     94     166     167     161     160     
101     102     96     95     167     168     162     161     
103     104     98     97     169     170     164     163     
104     105     99     98     170     171     165     164     
105     106     100     99     171     172     166     165     
106     107     101     100     172     173     167     166     
107     108     102     101     173     174     168     167     
109     110     104     103     175     176     170     169     
110     111     105     104     176     177     171     170     
111     112     106     105     177     178     172     171     
112     113     107     106     178     179     173     172     
113     114     108     107     179     180     174     173     
115     116     110     109     181     182     176     175     
116     117     111     110     182     183     177     176     
117     118     112     111     183     184     178     177     
118     119     113     112     184     185     179     178     
119     120     114     113     185     186     180     179     
121     122     116     115     187     188     182     181     
122     123     117     116     188     189     183     182     
123     124     118     117     189     190     184     183     
124     125     119     118     190     191     185     184     
125     126     120     119     191     192     186     185     
127     128     122     121     193     194     188     187     
128     129     123     122     194     195     189     188     
129     130     124     123     195     196     190     189     
130     131     125     124     196     197     191     190     
131     132     126     125     197     198     192     191     
134     136     135     133     200     202     201     199     
136     138     137     135     202     204     203     201     
138     140     139     137     204     206     205     203     
140     142     141     139     206     208     207     205     
142     143     144     141     208     209     210     207     
145     146     136     134     211     212     202     200     
146     147     138     136     212     213     204     202     
147     148     140     138     213     214     206     204     
148     149     142     140     214     215     208     206     
149     150     143     142     215     216     209     208     
151     152     146     145     217     218     212     211     
152     153     147     146     218     219     213     212     
153     154     148     147     219     220     214     213     
154     155     149     148     220     221     215     214     
155     156     150     149     221     222     216     215     
157     158     152     151     223     224     218     217     
158     159     153     152     224     225     219     218     
159     160     154     153     225     226     220     219     
160     161     155     154     226     227     221     220     
161     162     156     155     227     228     222     221     
163     164     158     157     229     230     224     223     
164     165     159     158     230     231     225     224     
165     166     160     159     231     232     226     225     
166     167     161     160     232     233     227     226     
167     168     162     161     233     234     228     227     
169     170     164     163     235     236     230     229     
170     171     165     164     236     237     231     230     
171     172     166     165     237     238     232     231     
172     173     167     166     238     239     233     232     
173     174     168     167     239     240     234     233     
175     176     170     169     241     242     236     235     
176     177     171     170     242     243     237     236     
177     178     172     171     243     244     238     237     
178     179     173     172     244     245     239     238     
179     180     174     173     245     246     240     239     
181     182     176     175     247     248     242     241     
182     183     177     176     248     249     243     242     
183     184     178     177     249     250     244     243     
184     185     179     178     250     251     245     244     
185     186     180     179     251     252     246     245     
187     188     182     181     253     254     248     247     
188     189     183     182     254     255     249     248     
189     190     184     183     255     256     250     249     
190     191     185     184     256     257     251     250     
191     192     186     185     257     258     252     251     
193     194     188     187     259     260     254     253     
194     195     189     188     260     261     255     254     
195     196     190     189     261     262     256     255     
196     197     191     190     262     263     257     256     
197     198     192     191     263     264     258     257     
200     202     201     199     266     268     267     265     
202     204     203     201     268     270     269     267     
204     206     205     203     270     272     271     269     
206     208     207     205     272     274     273     271     
208     209     210     207     274     275     276     273     
211     212     202     200     277     278     268     266     
212     213     204     202     278     279     270     268     
213     214     206     204     279     280     272     270     
214     215     208     206     280     281     274     272     
215     216     209     208     281     282     275     274     
217     218     212     211     283     284     278     277     
218     219     213     212     284     285     279     278     
219     220     214     213     285     286     280     279     
220     221     215     214     286     287     281     280     
221     222     216     215     287     288     282     281     
223     224     218     217     289     290     284     283     
224     225     219     218     290     291     285     284     
225     226     220     219     291     292     286     285     
226     227     221     220     292     293     287     286     
227     228     222     221     293     294     288     287     
229     230     224     223     295     296     290     289     
230     231     225     224     296     297     291     290     
231     232     226     225     297     298     292     291     
232     233     227     226     298     299     293     292     
233     234     228     227     299     300     294     293     
235     236     230     229     301     302     296     295     
236     237     231     230     302     303     297     296     
237     238     232     231     303     304     298     297     
238     239     233     232     304     305     299     298     
239     240     234     233     305     306     300     299     
241     242     236     235     307     308     302     301     
242     243     237     236     308     309     303     302     
243     244     238     237     309     310     304     303     
244     245     239     238     310     311     305     304     
245     246     240     239     311     312     306     305     
247     248     242     241     313     314     308     307     
248     249     243     242     314     315     309     308     
249     250     244     243     315     316     310     309     
250     251     245     244     316     317     311     310     
251     252     246     245     317     318     312     311     
253     254     248     247     319     320     314     313     
254     255     249     248     320     321     315     314     
255     256     250     249     321     322     316     315     
256     257     251     250     322     323     317     316     
257     258     252     251     323     324     318     317     
259     260     254     253     325     326     320     319     
260     261     255     254     326     327     321     320     
261     262     256     255     327     328     322     321     
262     263     257     256     328     329     323     322     
263     264     258     257     329     330     324     323     
266     268     267     265     332     334     333     331     
268     270     269     267     334     336     335     333     
270     272     271     269     336     338     337     335     
272     274     273     271     338     340     339     337     
274     275     276     273     340     341     342     339     
277     278     268     266     343     344     334     332     
278     279     270     268     344     345     336     334     
279     280     272     270     345     346     338     336     
280     281     274     272     346     347     340     338     
281     282     275     274     347     348     341     340     
283     284     278     277     349     350     344     343     
284     285     279     278     350     351     345     344     
285     286     280     279     351     352     346     345     