Title = " tecplot file for 2D Cavity problem " 
variables = "x", "y", "z", "velX", "cellCentroidY" 
Zone T = "nmesh0" N = 467 E = 251 DATAPACKING = BLOCK, VARLOCATION = ([4-5]=CELLCENTERED),  ZONETYPE=FEBRICK 
0.0    -2.7755575616e-17    -2.7755575616e-17    0.0    -2.7755575616e-17    
-2.7755575616e-17    0.0    0.0    -2.7755575616e-17    0.0    
0.0    0.0    -2.7755575616e-17    0.0    0.0    
0.0    0.0    0.0    0.0    -2.7755575616e-17    
0.0    0.0    0.0    0.0    -2.7755575616e-17    
0.0    0.0    0.0    0.0    -2.7755575616e-17    
0.0    0.0    0.0    0.0    -2.7755575616e-17    
-2.7755575616e-17    -2.7755575616e-17    0.0    0.0    0.0    
0.0    -2.7755575616e-17    -2.7755575616e-17    0.0    0.0    
0.0    0.0    -2.7755575616e-17    0.0    -2.7755575616e-17    
0.0    0.0    0.0    -0.05    -0.05    
-0.05    -0.05    -0.05    -0.05    -0.05    
-0.05    -0.05    -0.05    -0.05    -0.05    
-0.05    -0.05    -0.05    -0.05    -0.05    
-0.05    -0.05    -0.05    -0.05    -0.05    
-0.05    -0.05    -0.05    -0.05    -0.05    
-0.05    -0.05    -0.05    -0.05    -0.05    
-0.05    -0.05    -0.05    -0.05    -0.05    
-0.05    -0.05    -0.05    -0.05    -0.05    
-0.05    -0.05    -0.05    -0.05    -0.05    
-0.05    -0.05    -0.05    -0.05    -0.05    
-0.05    -0.05    -0.05    -0.05    -0.05    
-0.05    -0.05    -0.05    -0.05    -0.05    
-0.05    -0.05    -0.05    -0.05    -0.05    
-0.05    -0.05    -0.05    -0.05    -0.05    
-0.05    -0.05    -0.05    -0.05    -0.05    
-0.05    -0.1    -0.1    -0.1    -0.1    
-0.1    -0.1    -0.1    -0.1    -0.1    
-0.1    -0.1    -0.1    -0.1    -0.1    
-0.1    -0.1    -0.1    -0.1    -0.1    
-0.1    -0.1    -0.1    -0.1    -0.1    
-0.1    -0.1    -0.1    -0.1    -0.1    
-0.1    -0.1    -0.1    -0.1    -0.1    
-0.1    -0.1    -0.1    -0.1    -0.1    
-0.1    -0.1    -0.1    -0.1    -0.1    
-0.1    -0.1    -0.1    -0.1    -0.1    
-0.1    -0.1    -0.1    -0.1    -0.1    
-0.1    -0.1    -0.1    -0.1    -0.1    
-0.1    -0.1    -0.1    -0.1    -0.1    
-0.1    -0.1    -0.1    -0.1    -0.1    
-0.1    -0.1    -0.1    -0.1    -0.1    
-0.1    -0.1    -0.1    -0.1    -0.1    
-0.1    -0.1    -0.1    -0.1    -0.15    
-0.15    -0.15    -0.15    -0.15    -0.15    
-0.15    -0.15    -0.15    -0.15    -0.15    
-0.15    -0.15    -0.15    -0.15    -0.15    
-0.15    -0.15    -0.15    -0.15    -0.15    
-0.15    -0.15    -0.15    -0.15    -0.15    
-0.15    -0.15    -0.15    -0.15    -0.15    
-0.15    -0.15    -0.15    -0.15    -0.15    
-0.15    -0.15    -0.15    -0.15    -0.15    
-0.15    -0.15    -0.15    -0.15    -0.15    
-0.15    -0.15    -0.15    -0.15    -0.15    
-0.15    -0.15    -0.15    -0.15    -0.15    
-0.15    -0.15    -0.15    -0.15    -0.15    
-0.15    -0.15    -0.15    -0.15    -0.15    
-0.15    -0.15    -0.15    -0.15    -0.15    
-0.15    -0.15    -0.15    -0.15    -0.15    
-0.15    -0.15    -0.15    -0.15    -0.15    
-0.15    -0.15    -0.15    -0.15    -0.2    
-0.2    -0.2    -0.2    -0.2    -0.2    
-0.2    -0.2    -0.2    -0.2    -0.2    
-0.2    -0.2    -0.2    -0.2    -0.2    
-0.2    -0.2    -0.2    -0.2    -0.2    
-0.2    -0.2    -0.2    -0.2    -0.2    
-0.2    -0.2    -0.2    -0.2    -0.2    
-0.2    -0.2    -0.2    -0.2    -0.2    
-0.2    -0.2    -0.2    -0.2    -0.2    
-0.2    -0.2    -0.2    -0.2    -0.2    
-0.2    -0.2    -0.2    -0.2    -0.2    
-0.2    -0.2    -0.2    -0.2    -0.2    
-0.2    -0.25    -0.25    -0.25    -0.25    
-0.25    -0.25    -0.25    -0.25    -0.25    
-0.25    -0.25    -0.25    -0.25    -0.25    
-0.25    -0.25    -0.25    -0.25    -0.25    
-0.25    -0.25    -0.25    -0.25    -0.25    
-0.25    -0.25    -0.25    -0.25    -0.25    
-0.25    -0.25    -0.25    -0.25    -0.25    
-0.25    -0.25    -0.25    -0.25    -0.25    
-0.25    -0.25    -0.25    -0.25    -0.25    
-0.3    -0.3    -0.3    -0.3    -0.3    
-0.3    -0.3    -0.3    -0.3    -0.3    
-0.3    -0.3    -0.3    -0.3    -0.3    
-0.3    -0.3    -0.3    -0.3    -0.3    
-0.3    -0.3    -0.3    -0.3    -0.3    
-0.3    -0.3    -0.3    -0.3    -0.3    
-0.3    -0.3    -0.3    -0.3    -0.3    
-0.35    -0.35    -0.35    -0.35    -0.35    
-0.35    -0.35    -0.35    -0.35    -0.35    
-0.35    -0.35    -0.35    -0.35    -0.35    
-0.35    -0.35    -0.35    -0.35    -0.35    
-0.35    -0.35    -0.35    -0.35    -0.35    
-0.35    -0.4    -0.4    -0.4    -0.4    
-0.4    -0.4    
-0.25    -0.2    -0.2    -0.25    -0.15    
-0.15    -0.1    -0.1    -0.15    -0.1    
-0.05    -0.05    -0.15    -0.1    -0.05    
1.2325951644e-32    0.0    0.05    0.05    -0.15    
-0.1    -0.05    0.0    0.05    -0.15    
-0.1    -0.05    0.0    0.05    -0.15    
-0.1    -0.05    0.0    0.05    -0.2    
-0.15    -0.2    -0.1    -0.05    0.0    
0.05    -0.2    -0.15    -0.1    -0.05    
0.0    -0.25    -0.2    -0.25    -0.15    
-0.1    -0.05    0.0    -0.1    -0.05    
-0.05    -0.1    -1.3877787808e-18    0.0    0.05    
0.05    -0.1    -0.05    0.0    0.05    
0.1    0.1    -0.2    -0.25    -0.15    
-0.1    -0.05    0.0    0.05    0.1    
-0.25    -0.2    -0.15    -0.1    -0.05    
0.0    0.05    0.1    -0.15    -0.1    
-0.05    0.0    0.05    0.1    -0.15    
-0.1    -0.05    2.7755575616e-18    0.05    -0.15    
-0.1    -0.05    0.0    0.05    -0.15    
-0.1    -0.05    0.0    0.05    -0.15    
-0.2    -0.2    -0.1    -0.05    0.0    
0.05    -0.2    -0.15    -0.1    -0.05    
0.0    0.05    -0.2    -0.25    -0.15    
-0.1    -0.05    0.0    0.05    -0.25    
-0.2    -0.15    -0.1    -0.05    0.0    
0.05    -0.05    -0.1    0.0    0.05    
-0.1    -0.05    -2.7755575616e-18    0.05    0.1    
-0.1    -0.05    0.0    0.05    0.1    
-0.2    -0.25    -0.15    -0.1    -0.05    
0.0    0.05    0.1    -0.25    -0.2    
-0.15    -0.1    -0.05    0.0    0.05    
0.1    -0.25    -0.2    -0.15    -0.1    
-0.05    0.0    0.05    0.1    -0.25    
-0.2    -0.15    -0.1    -0.05    5.5511151231e-18    
0.05    -0.15    -0.2    -0.1    -0.05    
0.0    0.05    -0.15    -0.2    -0.1    
-0.05    0.0    0.05    -0.2    -0.15    
-0.1    -0.05    0.0    0.05    -0.2    
-0.15    -0.1    -0.05    0.0    0.05    
-0.2    -0.25    -0.15    -0.1    -0.05    
0.0    0.05    -0.25    -0.2    -0.15    
-0.1    -0.05    0.0    0.05    -0.05    
-0.1    -0.05    -0.1    0.0    8.3266726847e-18    
0.05    -0.1    -0.05    -4.1633363423e-18    0.05    
0.1    -0.1    -0.05    0.0    0.05    
0.1    -0.2    -0.25    -0.15    -0.1    
-0.05    0.0    0.05    0.1    -0.25    
-0.2    -0.15    -0.1    -0.05    0.0    
0.05    0.1    -0.25    -0.2    -0.15    
-0.1    -0.05    0.0    0.05    0.1    
-0.25    -0.2    -0.15    -0.1    -0.05    
8.3266726847e-18    0.05    -0.2    -0.15    -0.1    
-0.05    -2.7755575616e-17    0.05    0.1    0.1    
-0.2    -0.15    -0.1    -0.05    -2.7755575616e-17    
0.05    0.1    -0.2    -0.15    -0.1    
-0.05    0.0    0.05    0.1    -0.15    
-0.1    -0.05    0.0    0.05    -0.15    
-0.1    -0.05    -2.7755575616e-17    0.05    -0.15    
-0.1    -0.05    -2.7755575616e-17    0.05    -0.05    
-0.1    1.1102230246e-17    -0.1    -0.05    0.0    
-0.1    -0.05    -5.5511151231e-18    0.05    0.1    
-0.1    -0.05    0.0    0.05    0.1    
-0.15    -0.2    -0.1    -0.05    0.0    
0.05    0.1    -0.2    -0.15    -0.1    
-0.05    0.0    0.05    -0.2    -0.15    
-0.1    -0.05    0.0    0.05    -0.2    
-0.15    -0.1    -0.05    1.1102230246e-17    0.05    
0.1    -0.2    -0.15    -0.1    -0.05    
0.0    0.05    0.1    -0.05    0.0    
0.05    0.1    -0.05    0.0    0.05    
0.1    -0.05    -0.1    1.3877787808e-17    -0.1    
-0.05    0.0    -0.1    -0.05    -6.9388939039e-18    
-0.1    -0.05    0.0    0.05    0.1    
-0.1    -0.05    0.0    0.05    0.1    
-0.1    -0.05    0.0    0.05    -0.1    
-0.15    -0.05    0.0    0.05    -0.15    
-0.1    -0.05    1.3877787808e-17    0.05    0.1    
-0.05    0.0    0.05    0.1    0.0    
0.05    0.1    0.0    0.05    0.1    
-0.05    -0.1    -8.3266726847e-18    -0.1    -0.05    
0.0    -0.1    -0.05    0.0    0.05    
-0.1    -0.05    0.0    0.05    -0.1    
-0.15    -0.05    0.0    0.05    -0.15    
-0.1    -0.05    1.6653345369e-17    0.05    0.1    
-0.05    0.0    0.05    0.1    0.0    
0.05    0.1    0.0    0.05    0.1    
-0.05    -0.1    -9.7144514655e-18    -0.1    -0.05    
0.0    -0.1    -0.05    0.0    0.05    
0.0    0.05    0.0    0.05    1.9428902931e-17    
0.05    0.1    0.0    0.05    0.1    
0.0    0.05    0.1    0.0    0.05    
0.1    -0.05    -0.1    0.0    -0.1    
-0.05    0.0    
-0.1    -0.1    -0.05    -0.05    -0.1    
-0.05    -0.1    -0.05    -0.15    -0.15    
-0.15    -0.1    -0.2    -0.2    -0.2    
-0.2    -0.15    -0.2    -0.15    -0.25    
-0.25    -0.25    -0.25    -0.25    -0.3    
-0.3    -0.3    -0.3    -0.3    -0.35    
-0.35    -0.35    -0.35    -0.35    -0.4    
-0.4    -0.35    -0.4    -0.4    -0.4    
-0.4    -0.45    -0.45    -0.45    -0.45    
-0.45    -0.5    -0.5    -0.45    -0.5    
-0.5    -0.5    -0.5    0.05    0.05    
0.1    0.1    0.05    0.1    0.05    
0.1    0.0    0.0    0.0    0.0    
0.0    0.05    -0.05    -0.05    -0.05    
-0.05    -0.05    -0.05    -0.05    -0.05    
-0.1    -0.1    -0.1    -0.1    -0.1    
-0.1    -0.1    -0.1    -0.15    -0.15    
-0.15    -0.15    -0.15    -0.15    -0.2    
-0.2    -0.2    -0.2    -0.2    -0.25    
-0.25    -0.25    -0.25    -0.25    -0.3    
-0.3    -0.3    -0.3    -0.3    -0.35    
-0.35    -0.3    -0.35    -0.35    -0.35    
-0.35    -0.4    -0.4    -0.4    -0.4    
-0.4    -0.4    -0.45    -0.45    -0.45    
-0.45    -0.45    -0.45    -0.45    -0.5    
-0.5    -0.5    -0.5    -0.5    -0.5    
-0.5    0.1    0.1    0.1    0.1    
0.05    0.05    0.05    0.05    0.05    
0.0    0.0    0.0    0.0    0.0    
-0.05    -0.05    -0.05    -0.05    -0.05    
-0.05    -0.05    -0.05    -0.1    -0.1    
-0.1    -0.1    -0.1    -0.1    -0.1    
-0.1    -0.15    -0.15    -0.15    -0.15    
-0.15    -0.15    -0.15    -0.15    -0.2    
-0.2    -0.2    -0.2    -0.2    -0.2    
-0.2    -0.25    -0.25    -0.25    -0.25    
-0.25    -0.25    -0.3    -0.3    -0.3    
-0.3    -0.3    -0.3    -0.35    -0.35    
-0.35    -0.35    -0.35    -0.35    -0.4    
-0.4    -0.4    -0.4    -0.4    -0.4    
-0.45    -0.45    -0.45    -0.45    -0.45    
-0.45    -0.45    -0.5    -0.5    -0.5    
-0.5    -0.5    -0.5    -0.5    0.1    
0.1    0.15    0.15    0.1    0.15    
0.1    0.05    0.05    0.05    0.05    
0.05    0.0    0.0    0.0    0.0    
0.0    -0.05    -0.05    -0.05    -0.05    
-0.05    -0.05    -0.05    -0.05    -0.1    
-0.1    -0.1    -0.1    -0.1    -0.1    
-0.1    -0.1    -0.15    -0.15    -0.15    
-0.15    -0.15    -0.15    -0.15    -0.15    
-0.2    -0.2    -0.2    -0.2    -0.2    
-0.2    -0.2    -0.25    -0.25    -0.25    
-0.25    -0.25    -0.25    -0.25    -0.2    
-0.3    -0.3    -0.3    -0.3    -0.3    
-0.3    -0.3    -0.35    -0.35    -0.35    
-0.35    -0.35    -0.35    -0.35    -0.4    
-0.4    -0.4    -0.4    -0.4    -0.45    
-0.45    -0.45    -0.45    -0.45    -0.5    
-0.5    -0.5    -0.5    -0.5    0.15    
0.15    0.15    0.1    0.1    0.1    
0.05    0.05    0.05    0.05    0.05    
0.0    0.0    0.0    0.0    0.0    
-0.05    -0.05    -0.05    -0.05    -0.05    
-0.05    -0.05    -0.1    -0.1    -0.1    
-0.1    -0.1    -0.1    -0.15    -0.15    
-0.15    -0.15    -0.15    -0.15    -0.2    
-0.2    -0.2    -0.2    -0.2    -0.2    
-0.2    -0.25    -0.25    -0.25    -0.25    
-0.25    -0.25    -0.25    -0.3    -0.3    
-0.3    -0.3    -0.35    -0.35    -0.35    
-0.35    0.15    0.15    0.15    0.1    
0.1    0.1    0.05    0.05    0.05    
0.0    0.0    0.0    0.0    0.0    
-0.05    -0.05    -0.05    -0.05    -0.05    
-0.1    -0.1    -0.1    -0.1    -0.15    
-0.15    -0.15    -0.15    -0.15    -0.2    
-0.2    -0.2    -0.2    -0.2    -0.2    
-0.25    -0.25    -0.25    -0.25    -0.3    
-0.3    -0.3    -0.35    -0.35    -0.35    
0.05    0.05    0.05    0.0    0.0    
0.0    -0.05    -0.05    -0.05    -0.05    
-0.1    -0.1    -0.1    -0.1    -0.15    
-0.15    -0.15    -0.15    -0.15    -0.2    
-0.2    -0.2    -0.2    -0.2    -0.2    
-0.25    -0.25    -0.25    -0.25    -0.3    
-0.3    -0.3    -0.35    -0.35    -0.35    
0.05    0.05    0.05    0.0    0.0    
0.0    -0.05    -0.05    -0.05    -0.05    
-0.1    -0.1    -0.15    -0.15    -0.2    
-0.2    -0.2    -0.25    -0.25    -0.25    
-0.3    -0.3    -0.3    -0.35    -0.35    
-0.35    0.0    0.0    0.0    -0.05    
-0.05    -0.05    
370.760449711    377.268907341    377.797582255    362.90261675    371.430381543    
364.603632021    363.735824644    355.450979693    367.140939254    365.397834432    
358.577794672    356.424196287    370.49018799    367.877164047    348.088993378    
362.72721196    359.480849433    335.230040413    353.170569709    349.180654196    
341.378765    336.529040707    374.607812353    371.15023209    367.859736644    
363.537770988    359.506083213    354.151795237    349.123668115    342.548293382    
379.423823147    375.174691476    373.900817803    368.556758055    367.025300177    
360.351141644    358.416310737    350.132705327    384.835953961    379.882333726    
380.729952812    374.465276306    375.592640621    367.710648611    369.116163676    
359.236083712    388.145400693    392.742806927    388.415245111    390.707281971    
385.173311203    388.17465223    381.145699502    384.993713195    376.098073307    
369.721659129    397.556349994    392.907865986    396.869230499    390.913766255    
396.013000343    388.429312854    394.935343334    385.303602614    398.114157984    
398.157784229    397.611904561    396.93875069    396.098775997    395.039773809    
342.99103405    354.383664149    353.363367605    356.424195804    329.120282723    
341.760123831    345.461004967    327.659038075    332.064796528    353.36336769    
355.450979397    341.760123964    344.285907758    310.580960537    327.659038234    
330.668437689    310.580960674    314.102406224    354.383664445    355.450979511    
342.991034395    344.285907912    329.120283163    330.668437876    312.282993937    
314.102406392    378.848361825    372.763991695    365.397834341    356.424196197    
345.461005483    345.461005413    332.06479714    332.064797061    315.730694821    
315.730694702    366.982198129    358.370844412    347.819443007    334.879320814    
319.030223893    369.346074147    361.287516496    351.372241045    339.148331982    
372.467370495    365.159779257    356.122341576    344.907630247    376.306124047    
369.951931353    362.048859454    352.169336586    384.259261884    384.990360808    
380.7976384    375.595400178    369.088016562    360.891567974    385.846868708    
381.978270544    377.114189367    381.333989454    370.944990857    391.326074855    
388.939380534    385.926753081    393.690896169    382.08515278    397.077577522    
396.270594281    395.249798558    393.944234431    359.480848855    349.18065357    
358.577794287    348.088992943    335.230039884    319.484964491    358.577794401    
348.088993098    335.230040069    319.48496464    379.848958604    374.034527533    
374.747055085    367.87716384    359.480849231    349.180654011    336.529040494    
381.333313705    375.924012686    375.924012622    369.346074008    361.28751638    
351.372240939    339.148331865    378.408497671    377.674608157    371.538183073    
363.995310702    354.675159035    343.123673157    381.449559361    379.976935638    
374.433515797    367.591744664    359.093744242    348.491156976    364.610389039    
355.265321605    371.167433812    363.410282057    351.37224035    361.287515813    
365.1597786    356.122340865    363.537770347    354.151794542    362.727211484    
353.170569178    362.727211608    353.170569331    341.378764529    326.82125303    
363.537770698    354.151794932    342.548293023    365.159779035    356.12234136    
344.907630008    374.43351571    367.591744578    359.093744147    348.491156844    
363.071674211    335.222082606    353.334490087    343.456355596    341.044133754    
359.454409455    353.50760431    348.507500877    366.822141815    357.634337791    
367.859736131    359.506082672    367.859736229    359.506082753    368.556757696    
360.351141233    350.132704878    369.95193108    362.048859147    352.169336266    
377.995553187    372.044667103    364.610388873    355.265321398    368.042307964    
359.454409364    348.507500771    364.754694393    354.994942783    371.144881027    
362.944907667    373.900817316    367.025299663    373.900817355    367.025299685    
359.236083266    360.891567627    363.410281829    366.822141675    357.63433763    
371.14488096    362.944907588    376.364219302    369.466874484    380.729952431    
375.592640209    
-0.175    -0.225    -0.225    -0.125    -0.175    
-0.125    -0.125    -0.075    -0.125    -0.125    
-0.075    -0.075    -0.125    -0.125    -0.025    
-0.075    -0.075    0.025    -0.025    -0.025    
0.025    0.025    -0.125    -0.125    -0.075    
-0.075    -0.025    -0.025    0.025    0.025    
-0.125    -0.125    -0.075    -0.075    -0.025    
-0.025    0.025    0.025    -0.125    -0.125    
-0.075    -0.075    -0.025    -0.025    0.025    
0.025    -0.175    -0.175    -0.175    -0.125    
-0.125    -0.075    -0.075    -0.025    -0.025    
0.025    -0.175    -0.175    -0.125    -0.125    
-0.075    -0.075    -0.025    -0.025    -0.225    
-0.225    -0.175    -0.125    -0.075    -0.025    
-0.025    -0.075    -0.075    -0.075    0.025    
-0.025    -0.025    0.025    0.025    -0.075    
-0.075    -0.025    -0.025    0.075    0.025    
0.025    0.075    0.075    -0.075    -0.075    
-0.025    -0.025    0.025    0.025    0.075    
0.075    -0.225    -0.175    -0.125    -0.075    
-0.025    -0.025    0.025    0.025    0.075    
0.075    -0.125    -0.075    -0.025    0.025    
0.075    -0.125    -0.075    -0.025    0.025    
-0.125    -0.075    -0.025    0.025    -0.125    
-0.075    -0.025    0.025    -0.175    -0.175    
-0.125    -0.075    -0.025    0.025    -0.125    
-0.075    -0.025    0.025    0.025    -0.125    
-0.075    -0.025    0.025    0.025    -0.125    
-0.075    -0.025    0.025    -0.075    -0.025    
-0.075    -0.025    0.025    0.075    -0.075    
-0.025    0.025    0.075    -0.225    -0.175    
-0.175    -0.125    -0.075    -0.025    0.025    
-0.225    -0.175    -0.175    -0.125    -0.075    
-0.025    0.025    -0.175    -0.175    -0.125    
-0.075    -0.025    0.025    -0.175    -0.175    
-0.125    -0.075    -0.025    0.025    -0.025    
0.025    -0.025    0.025    -0.025    -0.075    
-0.075    -0.025    -0.075    -0.025    -0.075    
-0.025    -0.075    -0.025    0.025    0.075    
-0.075    -0.025    0.025    -0.075    -0.025    
0.025    -0.125    -0.075    -0.025    0.025    
-0.025    0.075    0.025    0.075    0.075    
0.025    0.075    0.075    0.025    0.075    
-0.075    -0.025    -0.075    -0.025    -0.075    
-0.025    0.025    -0.075    -0.025    0.025    
-0.125    -0.075    -0.025    0.025    -0.025    
0.025    0.075    0.025    0.075    0.025    
0.075    -0.075    -0.025    -0.075    -0.025    
0.025    0.025    0.025    0.025    0.075    
0.025    0.075    0.025    0.075    -0.075    
-0.025    
68     77     2     3     70     78     5     6     
3     2     77     68     4     1     76     69     
76     77     68     69     154     155     146     147     
70     78     5     6     71     79     7     8     
77     78     70     68     155     156     148     146     
79     78     5     7     85     84     9     10     
78     79     71     70     156     157     149     148     
79     85     10     7     80     86     11     12     
85     84     9     10     91     90     13     14     
84     85     79     78     164     165     157     156     
86     85     10     11     92     91     14     15     
85     86     80     79     165     166     158     157     
91     90     13     14     96     95     20     21     
90     91     85     84     172     173     165     164     
86     92     15     11     87     93     16     17     
92     91     14     15     97     96     21     22     
91     92     86     85     173     174     166     165     
87     93     16     17     88     94     18     19     
93     92     15     16     98     97     22     23     
92     93     87     86     174     175     167     166     
94     93     16     18     99     98     23     24     
93     94     88     87     175     176     168     167     
96     95     20     21     101     100     25     26     
95     96     91     90     177     179     173     172     
97     96     21     22     102     101     26     27     
96     97     92     91     179     180     174     173     
98     97     22     23     103     102     27     28     
97     98     93     92     180     181     175     174     
99     98     23     24     104     103     28     29     
98     99     94     93     181     182     176     175     
101     100     25     26     108     105     30     31     
100     101     96     95     183     185     179     177     
102     101     26     27     109     108     31     32     
101     102     97     96     185     186     180     179     
103     102     27     28     110     109     32     33     
102     103     98     97     186     187     181     180     
104     103     28     29     111     110     33     34     
103     104     99     98     187     188     182     181     
108     105     30     31     114     113     36     38     
105     108     101     100     190     191     185     183     
109     108     31     32     115     114     38     39     
108     109     102     101     191     192     186     185     
110     109     32     33     116     115     39     40     
109     110     103     102     192     193     187     186     
111     110     33     34     117     116     40     41     
110     111     104     103     193     194     188     187     
30     36     113     105     37     35     112     106     
113     112     35     36     120     118     42     43     
112     113     105     106     195     196     190     189     
114     113     36     38     121     120     43     44     
113     114     108     105     196     197     191     190     
115     114     38     39     122     121     44     45     
114     115     109     108     197     198     192     191     
116     115     39     40     123     122     45     46     
115     116     110     109     198     199     193     192     
116     117     111     110     199     200     194     193     
120     118     42     43     127     126     48     50     
118     120     113     112     201     203     196     195     
121     120     43     44     128     127     50     51     
120     121     114     113     203     204     197     196     
122     121     44     45     129     128     51     52     
121     122     115     114     204     205     198     197     
123     122     45     46     130     129     52     53     
122     123     116     115     205     206     199     198     
42     48     126     118     49     47     125     119     
125     126     118     119     208     209     201     202     
126     127     120     118     209     210     203     201     
127     128     121     120     210     211     204     203     
128     129     122     121     211     212     205     204     
129     130     123     122     212     213     206     205     
132     137     55     56     134     138     58     59     
56     55     137     132     57     54     136     133     
137     136     54     55     142     141     62     63     
136     137     132     133     222     223     215     216     
134     138     58     59     135     139     60     61     
138     137     55     58     143     142     63     64     
137     138     134     132     223     224     219     215     
139     138     58     60     144     143     64     65     
138     139     135     134     224     225     221     219     
142     141     62     63     150     149     71     72     
141     142     137     136     227     228     223     222     
143     142     63     64     151     150     72     73     
142     143     138     137     228     229     224     223     
139     144     65     60     140     145     66     67     
144     143     64     65     152     151     73     74     
143     144     139     138     229     230     225     224     
145     144     65     66     153     152     74     75     
144     145     140     139     230     231     226     225     
150     149     71     72     158     157     79     80     
149     150     142     141     235     236     228     227     
151     150     72     73     159     158     80     81     
150     151     143     142     236     237     229     228     
152     151     73     74     160     159     81     82     
151     152     144     143     237     238     230     229     
153     152     74     75     161     160     82     83     
152     153     145     144     238     239     231     230     
154     155     146     147     240     241     232     233     
155     156     148     146     241     242     234     232     
156     157     149     148     242     243     235     234     
157     158     150     149     243     244     236     235     
159     158     80     81     167     166     86     87     
158     159     151     150     244     245     237     236     
160     159     81     82     168     167     87     88     
159     160     152     151     245     246     238     237     
161     160     82     83     169     168     88     89     
160     161     153     152     246     247     239     238     
164     165     157     156     250     251     243     242     
165     166     158     157     251     252     244     243     
166     167     159     158     252     253     245     244     
167     168     160     159     253     254     246     245     
168     169     161     160     254     255     247     246     
172     173     165     164     258     259     251     250     
173     174     166     165     259     260     252     251     
174     175     167     166     260     261     253     252     
175     176     168     167     261     262     254     253     
177     179     173     172     264     265     259     258     
179     180     174     173     265     266     260     259     
180     181     175     174     266     267     261     260     
181     182     176     175     267     268     262     261     
183     185     179     177     272     273     265     264     
185     186     180     179     273     274     266     265     
186     187     181     180     274     275     267     266     
187     188     182     181     275     276     268     267     
100     105     190     183     107     106     189     184     
189     190     183     184     278     279     272     271     
190     191     185     183     279     280     273     272     
191     192     186     185     280     281     274     273     
192     193     187     186     281     282     275     274     
193     194     188     187     282     283     276     275     
196     197     191     190     285     286     280     279     
197     198     192     191     286     287     281     280     
198     199     193     192     287     288     282     281     
200     199     116     117     207     206     123     124     
199     200     194     193     288     289     283     282     
203     204     197     196     290     291     286     285     
204     205     198     197     291     292     287     286     
205     206     199     198     292     293     288     287     
207     206     123     124     214     213     130     131     
206     207     200     199     293     294     289     288     
210     211     204     203     295     296     291     290     
211     212     205     204     296     297     292     291     
212     213     206     205     297     298     293     292     
213     214     207     206     298     299     294     293     
222     223     215     216     306     307     304     303     
223     224     219     215     307     308     305     304     
227     228     223     222     311     312     307     306     
228     229     224     223     312     313     308     307     
229     230     225     224     313     314     309     308     
230     231     226     225     314     315     310     309     
235     236     228     227     318     319     312     311     
236     237     229     228     319     320     313     312     
237     238     230     229     320     321     314     313     
238     239     231     230     321     322     315     314     
241     240     154     155     249     248     162     163     
242     241     155     156     250     249     163     164     
241     242     234     232     323     324     316     317     
242     243     235     234     324     325     318     316     
243     244     236     235     325     326     319     318     
244     245     237     236     326     327     320     319     
245     246     238     237     327     328     321     320     
249     248     162     163     257     256     170     171     
250     249     163     164     258     257     171     172     
249     250     242     241     329     330     324     323     
250     251     243     242     330     331     325     324     
251     252     244     243     331     332     326     325     
252     253     245     244     332     333     327     326     
253     254     246     245     333     334     328     327     
258     257     171     172     264     263     178     177     
257     258     250     249     335     336     330     329     