Title = " tecplot file for 2D Cavity problem " 
variables = "x", "y", "z", "velX", "cellCentroidY" 
Zone T = "nmesh0" N = 464 E = 250 DATAPACKING = BLOCK, VARLOCATION = ([4-5]=CELLCENTERED),  ZONETYPE=FEBRICK 
-0.15    -0.15    -0.15    -0.15    -0.15    
-0.15    -0.15    -0.15    -0.15    -0.15    
-0.15    -0.15    -0.15    -0.15    -0.15    
-0.15    -0.15    -0.15    -0.15    -0.15    
-0.15    -0.15    -0.15    -0.15    -0.15    
-0.15    -0.15    -0.15    -0.15    -0.15    
-0.15    -0.2    -0.2    -0.2    -0.2    
-0.2    -0.2    -0.2    -0.2    -0.2    
-0.2    -0.2    -0.2    -0.2    -0.2    
-0.2    -0.2    -0.2    -0.2    -0.2    
-0.2    -0.2    -0.2    -0.2    -0.2    
-0.2    -0.2    -0.2    -0.2    -0.2    
-0.2    -0.2    -0.2    -0.2    -0.2    
-0.2    -0.2    -0.2    -0.2    -0.2    
-0.2    -0.2    -0.25    -0.25    -0.25    
-0.25    -0.25    -0.25    -0.25    -0.25    
-0.25    -0.25    -0.25    -0.25    -0.25    
-0.25    -0.25    -0.25    -0.25    -0.25    
-0.25    -0.25    -0.25    -0.25    -0.25    
-0.25    -0.25    -0.25    -0.25    -0.25    
-0.25    -0.25    -0.25    -0.25    -0.25    
-0.25    -0.25    -0.25    -0.25    -0.25    
-0.25    -0.25    -0.25    -0.25    -0.25    
-0.25    -0.25    -0.25    -0.25    -0.25    
-0.25    -0.25    -0.25    -0.25    -0.25    
-0.25    -0.25    -0.25    -0.25    -0.25    
-0.25    -0.3    -0.3    -0.3    -0.3    
-0.3    -0.3    -0.3    -0.3    -0.3    
-0.3    -0.3    -0.3    -0.3    -0.3    
-0.3    -0.3    -0.3    -0.3    -0.3    
-0.3    -0.3    -0.3    -0.3    -0.3    
-0.3    -0.3    -0.3    -0.3    -0.3    
-0.3    -0.3    -0.3    -0.3    -0.3    
-0.3    -0.3    -0.3    -0.3    -0.3    
-0.3    -0.3    -0.3    -0.3    -0.3    
-0.3    -0.3    -0.3    -0.3    -0.3    
-0.3    -0.3    -0.3    -0.3    -0.3    
-0.3    -0.3    -0.3    -0.3    -0.3    
-0.3    -0.35    -0.35    -0.35    -0.35    
-0.35    -0.35    -0.35    -0.35    -0.35    
-0.35    -0.35    -0.35    -0.35    -0.35    
-0.35    -0.35    -0.35    -0.35    -0.35    
-0.35    -0.35    -0.35    -0.35    -0.35    
-0.35    -0.35    -0.35    -0.35    -0.35    
-0.35    -0.35    -0.35    -0.35    -0.35    
-0.35    -0.35    -0.35    -0.35    -0.35    
-0.35    -0.35    -0.35    -0.35    -0.35    
-0.35    -0.35    -0.35    -0.35    -0.35    
-0.35    -0.35    -0.35    -0.35    -0.35    
-0.35    -0.35    -0.35    -0.35    -0.35    
-0.35    -0.35    -0.35    -0.35    -0.35    
-0.35    -0.35    -0.35    -0.35    -0.35    
-0.4    -0.4    -0.4    -0.4    -0.4    
-0.4    -0.4    -0.4    -0.4    -0.4    
-0.4    -0.4    -0.4    -0.4    -0.4    
-0.4    -0.4    -0.4    -0.4    -0.4    
-0.4    -0.4    -0.4    -0.4    -0.4    
-0.4    -0.4    -0.4    -0.4    -0.4    
-0.4    -0.4    -0.4    -0.4    -0.4    
-0.4    -0.4    -0.4    -0.4    -0.4    
-0.4    -0.4    -0.4    -0.4    -0.4    
-0.4    -0.4    -0.4    -0.4    -0.4    
-0.4    -0.4    -0.4    -0.4    -0.4    
-0.4    -0.4    -0.4    -0.4    -0.4    
-0.4    -0.4    -0.4    -0.4    -0.4    
-0.4    -0.4    -0.4    -0.4    -0.4    
-0.4    -0.4    -0.45    -0.45    -0.45    
-0.45    -0.45    -0.45    -0.45    -0.45    
-0.45    -0.45    -0.45    -0.45    -0.45    
-0.45    -0.45    -0.45    -0.45    -0.45    
-0.45    -0.45    -0.45    -0.45    -0.45    
-0.45    -0.45    -0.45    -0.45    -0.45    
-0.45    -0.45    -0.45    -0.45    -0.45    
-0.45    -0.45    -0.45    -0.45    -0.45    
-0.45    -0.45    -0.45    -0.45    -0.45    
-0.45    -0.45    -0.45    -0.45    -0.45    
-0.45    -0.45    -0.45    -0.45    -0.45    
-0.45    -0.45    -0.45    -0.45    -0.45    
-0.45    -0.45    -0.45    -0.45    -0.45    
-0.45    -0.45    -0.45    -0.5    -0.5    
-0.5    -0.5    -0.5    -0.5    -0.5    
-0.5    -0.5    -0.5    -0.5    -0.5    
-0.5    -0.5    -0.5    -0.5    -0.5    
-0.5    -0.5    -0.5    -0.5    -0.5    
-0.5    -0.5    -0.5    -0.5    -0.5    
-0.5    -0.5    -0.5    -0.5    -0.5    
-0.5    -0.5    -0.5    -0.5    -0.5    
-0.5    -0.5    -0.5    -0.5    -0.5    
-0.5    -0.5    -0.5    -0.5    -0.5    
-0.5    -0.5    -0.5    -0.5    -0.5    
-0.5    -0.5    -0.5    -0.5    -0.5    
-0.5    -0.5    -0.5    -0.5    -0.5    
-0.5    -0.5    -0.5    -0.5    
0.2    0.25    0.25    0.2    0.2    
0.25    0.3    0.3    0.35    0.4    
0.4    0.35    0.45    0.45    0.3    
0.35    0.3    0.4    0.45    0.5    
0.5    0.35    0.4    0.45    0.5    
0.35    0.4    0.45    0.5    0.45    
0.5    0.25    0.2    0.2    0.25    
0.3    0.2    0.25    0.3    0.35    
0.35    0.4    0.4    0.4    0.35    
0.45    0.45    0.5    0.5    0.35    
0.3    0.4    0.45    0.5    0.3    
0.35    0.4    0.45    0.5    0.25    
0.3    0.25    0.35    0.4    0.45    
0.5    0.35    0.4    0.45    0.5    
0.45    0.5    0.25    0.2    0.2    
0.25    0.3    0.35    0.4    0.2    
0.25    0.3    0.35    0.4    0.45    
0.5    0.05    0.1    0.1    0.05    
0.15    0.15    0.35    0.3    0.4    
0.45    0.5    0.05    0.1    0.15    
0.2    0.2    0.25    0.25    0.3    
0.35    0.4    0.45    0.5    0.05    
0.1    0.15    0.2    0.25    0.3    
0.35    0.4    0.45    0.5    0.25    
0.3    0.35    0.4    0.45    0.5    
0.35    0.4    0.45    0.5    0.45    
0.5    0.35    0.3    0.4    0.1    
0.05    0.15    0.3    0.35    0.4    
0.45    0.5    0.05    0.1    0.15    
0.2    0.25    0.3    0.35    0.4    
0.45    0.5    0.05    0.1    0.15    
0.2    0.25    0.3    0.35    0.4    
0.45    0.5    0.05    0.1    0.15    
0.2    0.25    0.3    0.35    0.4    
0.45    0.5    0.1    0.15    0.2    
0.25    0.3    0.35    0.4    0.45    
0.5    0.35    0.4    0.45    0.5    
0.35    0.4    0.45    0.5    0.45    
0.5    0.1    0.05    0.15    0.4    
0.35    0.45    0.5    0.05    0.1    
0.15    0.2    0.25    0.3    0.35    
0.4    0.45    0.5    0.05    0.1    
0.15    0.2    0.25    0.3    0.35    
0.4    0.45    0.5    0.05    0.1    
0.15    0.2    0.25    0.3    0.35    
0.4    0.45    0.5    0.1    0.05    
0.15    0.2    0.25    0.3    0.35    
0.4    0.45    0.5    0.0    0.05    
0.0    0.1    0.25    0.3    0.35    
0.4    0.45    0.5    0.25    0.3    
0.35    0.4    0.45    0.5    0.35    
0.4    0.45    0.5    0.45    0.5    
0.15    0.1    0.45    0.4    0.45    
0.4    0.5    0.5    0.1    0.15    
0.2    0.25    0.3    0.35    0.4    
0.45    0.5    0.1    0.15    0.2    
0.25    0.3    0.35    0.4    0.45    
0.5    0.1    0.05    0.15    0.2    
0.25    0.3    0.35    0.4    0.45    
0.5    0.05    0.0    0.1    0.15    
0.2    0.25    0.3    0.35    0.4    
0.45    0.5    0.0    0.05    0.1    
0.15    0.2    0.25    0.3    0.35    
0.4    0.45    0.5    0.25    0.3    
0.35    0.4    0.45    0.5    0.35    
0.4    0.45    0.5    0.45    0.5    
0.45    0.5    0.45    0.4    0.5    
0.4    0.45    0.5    0.15    0.1    
0.2    0.25    0.3    0.35    0.4    
0.45    0.5    0.1    0.15    0.2    
0.25    0.3    0.35    0.4    0.45    
0.5    0.1    0.15    0.2    0.25    
0.3    0.35    0.4    0.45    0.5    
0.1    0.15    0.2    0.25    0.3    
0.35    0.4    0.45    0.5    0.1    
0.15    0.2    0.25    0.3    0.35    
0.4    0.45    0.5    0.25    0.2    
0.3    0.35    0.4    0.45    0.5    
0.35    0.4    0.45    0.5    0.45    
0.5    0.45    0.5    0.45    0.4    
0.5    0.4    0.45    0.5    0.15    
0.1    0.2    0.25    0.3    0.35    
0.4    0.45    0.5    0.1    0.15    
0.2    0.25    0.3    0.35    0.4    
0.45    0.5    0.1    0.15    0.2    
0.25    0.3    0.35    0.4    0.45    
0.5    0.1    0.15    0.2    0.25    
0.3    0.35    0.4    0.45    0.5    
0.1    0.15    0.2    0.25    0.3    
0.35    0.4    0.45    0.5    0.2    
0.25    0.3    0.35    0.4    0.45    
0.5    0.35    0.4    0.45    0.5    
0.45    0.5    0.45    0.5    
0.0    0.0    0.05    0.05    -0.05    
-0.05    -0.05    0.0    -0.15    -0.15    
-0.1    -0.1    -0.15    -0.1    -0.2    
-0.2    -0.15    -0.2    -0.2    -0.2    
-0.15    -0.25    -0.25    -0.25    -0.25    
-0.3    -0.3    -0.3    -0.3    -0.35    
-0.35    0.05    0.05    0.0    0.0    
0.0    -0.05    -0.05    -0.05    -0.05    
0.0    -0.05    0.0    -0.1    -0.1    
-0.1    -0.05    -0.1    -0.05    -0.15    
-0.15    -0.15    -0.15    -0.15    -0.2    
-0.2    -0.2    -0.2    -0.2    -0.25    
-0.25    -0.2    -0.25    -0.25    -0.25    
-0.25    -0.3    -0.3    -0.3    -0.3    
-0.35    -0.35    0.05    0.05    0.0    
0.0    0.0    0.0    0.0    -0.05    
-0.05    -0.05    -0.05    -0.05    -0.05    
-0.05    -0.1    -0.1    -0.05    -0.05    
-0.1    -0.05    -0.1    -0.1    -0.1    
-0.1    -0.1    -0.15    -0.15    -0.15    
-0.15    -0.1    -0.15    -0.1    -0.15    
-0.15    -0.15    -0.15    -0.15    -0.2    
-0.2    -0.2    -0.2    -0.2    -0.2    
-0.2    -0.2    -0.2    -0.2    -0.25    
-0.25    -0.25    -0.25    -0.25    -0.25    
-0.3    -0.3    -0.3    -0.3    -0.35    
-0.35    0.0    0.0    0.0    -0.05    
-0.05    -0.05    -0.05    -0.05    -0.05    
-0.05    -0.05    -0.1    -0.1    -0.1    
-0.1    -0.1    -0.1    -0.1    -0.1    
-0.1    -0.1    -0.15    -0.15    -0.15    
-0.15    -0.15    -0.15    -0.15    -0.15    
-0.15    -0.15    -0.2    -0.2    -0.2    
-0.2    -0.2    -0.2    -0.2    -0.2    
-0.2    -0.2    -0.25    -0.25    -0.25    
-0.25    -0.25    -0.25    -0.25    -0.25    
-0.25    -0.3    -0.3    -0.3    -0.3    
-0.35    -0.35    -0.35    -0.35    -0.4    
-0.4    -0.05    -0.05    -0.05    -0.05    
-0.05    -0.05    -0.05    -0.1    -0.1    
-0.1    -0.1    -0.1    -0.1    -0.1    
-0.1    -0.1    -0.1    -0.15    -0.15    
-0.15    -0.15    -0.15    -0.15    -0.15    
-0.15    -0.15    -0.15    -0.2    -0.2    
-0.2    -0.2    -0.2    -0.2    -0.2    
-0.2    -0.2    -0.2    -0.25    -0.25    
-0.25    -0.25    -0.25    -0.25    -0.25    
-0.25    -0.25    -0.25    -0.3    -0.3    
-0.25    -0.3    -0.3    -0.3    -0.3    
-0.3    -0.3    -0.3    -0.35    -0.35    
-0.35    -0.35    -0.35    -0.35    -0.4    
-0.4    -0.4    -0.4    -0.45    -0.45    
-0.05    -0.05    -0.05    -0.05    0.0    
0.0    -0.05    0.0    -0.1    -0.1    
-0.1    -0.1    -0.1    -0.1    -0.1    
-0.1    -0.1    -0.15    -0.15    -0.15    
-0.15    -0.15    -0.15    -0.15    -0.15    
-0.15    -0.2    -0.2    -0.2    -0.2    
-0.2    -0.2    -0.2    -0.2    -0.2    
-0.2    -0.25    -0.25    -0.25    -0.25    
-0.25    -0.25    -0.25    -0.25    -0.25    
-0.25    -0.25    -0.3    -0.3    -0.3    
-0.3    -0.3    -0.3    -0.3    -0.3    
-0.3    -0.3    -0.3    -0.35    -0.35    
-0.35    -0.35    -0.35    -0.35    -0.4    
-0.4    -0.4    -0.4    -0.45    -0.45    
-0.5    -0.5    0.0    0.0    0.0    
-0.05    -0.05    -0.05    -0.1    -0.1    
-0.1    -0.1    -0.1    -0.1    -0.1    
-0.1    -0.1    -0.15    -0.15    -0.15    
-0.15    -0.15    -0.15    -0.15    -0.15    
-0.15    -0.2    -0.2    -0.2    -0.2    
-0.2    -0.2    -0.2    -0.2    -0.2    
-0.25    -0.25    -0.25    -0.25    -0.25    
-0.25    -0.25    -0.25    -0.25    -0.3    
-0.3    -0.3    -0.3    -0.3    -0.3    
-0.3    -0.3    -0.3    -0.35    -0.35    
-0.35    -0.35    -0.35    -0.35    -0.35    
-0.4    -0.4    -0.4    -0.4    -0.45    
-0.45    -0.5    -0.5    0.0    0.0    
0.0    -0.05    -0.05    -0.05    -0.1    
-0.1    -0.1    -0.1    -0.1    -0.1    
-0.1    -0.1    -0.1    -0.15    -0.15    
-0.15    -0.15    -0.15    -0.15    -0.15    
-0.15    -0.15    -0.2    -0.2    -0.2    
-0.2    -0.2    -0.2    -0.2    -0.2    
-0.2    -0.25    -0.25    -0.25    -0.25    
-0.25    -0.25    -0.25    -0.25    -0.25    
-0.3    -0.3    -0.3    -0.3    -0.3    
-0.3    -0.3    -0.3    -0.3    -0.35    
-0.35    -0.35    -0.35    -0.35    -0.35    
-0.35    -0.4    -0.4    -0.4    -0.4    
-0.45    -0.45    -0.5    -0.5    
248.86099425    248.860994248    259.764123359    215.429811347    259.764123347    
226.945995176    84.6049643169    136.306362353    142.047890274    145.793658814    
88.5358811216    91.276683646    188.958707801    199.225614006    151.090014033    
151.090014023    30.1302729419    94.9135974506    94.9135974536    32.4667379007    
32.4667379017    165.07121398    159.488109702    105.250597727    100.861670296    
36.410758084    34.6517814595    172.585801705    110.601467852    43.5292344602    
38.3836620578    45.2148436183    187.575521254    141.227436323    204.126585757    
142.674847593    156.349328396    89.1752069687    157.621469882    30.4155147805    
100.153556386    31.1607553724    34.5850155545    160.372176579    102.011919003    
35.2450744559    208.71535647    214.390059843    165.071213987    105.250597745    
36.4107580907    248.692041364    262.288474749    222.830379909    172.585801716    
110.601467868    38.3836620633    184.435940625    119.482183553    41.8067833987    
48.198988058    205.657860327    321.38570023    337.367708194    339.769934736    
348.543610164    324.159190104    334.976180709    208.927623839    180.521050077    
118.224386898    41.9958990625    343.456355385    350.500697826    304.461730077    
328.46568914    337.241717791    279.587018195    309.36577018    320.206705119    
248.225694743    284.977606086    298.164146598    253.859540258    269.450178796    
231.878082843    182.807173981    119.773425206    42.5470731769    353.507604071    
340.765367671    324.233946377    302.60948476    274.117729053    236.425987107    
186.738634017    122.494630071    43.5292344671    281.14199481    243.507484578    
193.087698215    127.044891832    45.2148436254    203.233377306    134.723720805    
48.1989880631    53.9251650127    351.160720388    149.383507288    56.8681412293    
352.842165482    339.482766184    321.732830517    297.709133429    264.487352713    
217.559675192    150.555368116    57.2858790472    345.681889178    355.461359604    
329.970069578    342.486281035    309.102413258    325.061067283    301.219188632    
267.923932319    220.545100744    152.630997157    58.0373363061    359.123622852    
346.777104481    329.94275554    306.532107118    273.316860173    225.415999842    
156.146990404    59.3471289534    219.597766086    233.313150837    148.188620714    
162.194263376    61.7224035985    246.299342736    173.080675808    66.4447791278    
66.4447791304    77.2698397915    205.965665107    92.7314903553    370.656676197    
362.044167331    350.311497215    333.786293413    309.401447704    271.127776642    
206.698724821    92.9932345037    372.272136243    363.901442311    352.375863217    
335.971162599    311.549104556    273.001365933    208.0065573    93.4681145166    
368.341982759    372.29129831    374.534666155    366.56106642    355.414084685    
314.277672136    339.29417145    281.579663973    314.941973208    276.086198681    
210.248661264    94.3083287356    378.537258175    325.309785278    344.170959845    
294.137862992    320.190450436    281.156257797    214.178638796    95.8716656642    
351.1777743    328.272864155    268.008066927    289.658533787    193.89703372    
221.460015174    99.1153696989    304.259848126    235.971472002    107.051143282    
107.051143282    130.809133839    92.6142559527    205.634585064    311.181340372    
200.639247432    311.293915046    200.679135702    390.029338518    387.040349547    
382.895834481    376.859905719    367.323248479    350.053678135    311.543747269    
200.768432781    390.575488663    387.669139636    383.595925216    377.602354336    
368.054745573    350.693457682    311.991480098    200.931344768    377.519346392    
391.341096599    370.168329185    388.570771719    359.682366655    384.628284844    
378.734741244    369.215053957    351.752934033    312.765253663    201.222730748    
392.352248682    389.795814537    386.082471046    380.40332412    371.020983642    
353.510574243    314.140969496    201.776918819    382.814113064    373.82748274    
356.502874727    316.755400951    202.979984639    361.768131367    322.20396262    
206.192187644    217.302410608    217.302410608    266.677417002    388.067507178    

0.225    0.225    0.225    0.275    0.225    
0.275    0.425    0.375    0.375    0.375    
0.425    0.425    0.325    0.325    0.375    
0.375    0.475    0.425    0.425    0.475    
0.475    0.375    0.375    0.425    0.425    
0.475    0.475    0.375    0.425    0.475    
0.475    0.475    0.325    0.375    0.325    
0.375    0.375    0.425    0.375    0.475    
0.425    0.475    0.475    0.375    0.425    
0.475    0.325    0.325    0.375    0.425    
0.475    0.275    0.275    0.325    0.375    
0.425    0.475    0.375    0.425    0.475    
0.475    0.325    0.125    0.075    0.075    
0.075    0.125    0.125    0.325    0.375    
0.425    0.475    0.075    0.075    0.175    
0.125    0.125    0.225    0.175    0.175    
0.275    0.225    0.225    0.275    0.275    
0.325    0.375    0.425    0.475    0.075    
0.125    0.175    0.225    0.275    0.325    
0.375    0.425    0.475    0.275    0.325    
0.375    0.425    0.475    0.375    0.425    
0.475    0.475    0.125    0.425    0.475    
0.125    0.175    0.225    0.275    0.325    
0.375    0.425    0.475    0.125    0.125    
0.175    0.175    0.225    0.225    0.275    
0.325    0.375    0.425    0.475    0.125    
0.175    0.225    0.275    0.325    0.375    
0.425    0.475    0.375    0.375    0.425    
0.425    0.475    0.375    0.425    0.475    
0.475    0.475    0.425    0.475    0.125    
0.175    0.225    0.275    0.325    0.375    
0.425    0.475    0.125    0.175    0.225    
0.275    0.325    0.375    0.425    0.475    
0.075    0.075    0.125    0.175    0.225    
0.275    0.275    0.325    0.325    0.375    
0.425    0.475    0.025    0.275    0.275    
0.325    0.325    0.375    0.425    0.475    
0.275    0.325    0.375    0.375    0.425    
0.425    0.475    0.375    0.425    0.475    
0.475    0.475    0.475    0.425    0.425    
0.475    0.425    0.475    0.125    0.175    
0.225    0.275    0.325    0.375    0.425    
0.475    0.125    0.175    0.225    0.275    
0.325    0.375    0.425    0.475    0.125    
0.125    0.175    0.175    0.225    0.225    
0.275    0.325    0.375    0.425    0.475    
0.125    0.175    0.225    0.275    0.325    
0.375    0.425    0.475    0.275    0.325    
0.375    0.425    0.475    0.375    0.425    
0.475    0.475    0.475    0.475    0.225    

35     34     1     2     38     37     5     6     
2     1     34     35     3     4     33     32     
34     35     32     33     75     76     73     74     
35     38     6     2     36     39     7     8     
37     38     35     34     80     81     76     75     
38     39     36     35     81     82     77     76     
44     52     10     11     46     53     13     14     
11     10     52     44     12     9     50     45     
52     50     9     10     57     56     16     18     
50     52     44     45     106     107     95     93     
53     52     10     13     58     57     18     19     
52     53     46     44     107     108     96     95     
9     16     56     50     17     15     55     51     
55     56     50     51     115     116     106     105     
57     56     16     18     64     63     22     23     
56     57     52     50     116     117     107     106     
53     58     19     13     54     59     20     21     
58     57     18     19     65     64     23     24     
57     58     53     52     117     118     108     107     
59     58     19     20     66     65     24     25     
58     59     54     53     118     119     109     108     
64     63     22     23     68     67     26     27     
63     64     57     56     122     123     117     116     
65     64     23     24     69     68     27     28     
64     65     58     57     123     124     118     117     
66     65     24     25     70     69     28     29     
65     66     59     58     124     125     119     118     
67     68     64     63     126     127     123     122     
68     69     65     64     127     128     124     123     
70     69     28     29     72     71     30     31     
69     70     66     65     128     129     125     124     
71     72     70     69     130     131     129     128     
77     82     39     36     78     83     40     41     
78     83     40     41     79     84     42     43     
82     83     78     77     138     139     132     133     
84     83     40     42     95     93     45     44     
83     84     79     78     139     140     134     132     
84     95     44     42     85     96     46     47     
93     95     84     83     149     150     140     139     
85     96     46     47     86     97     48     49     
95     96     85     84     150     151     141     140     
97     96     46     48     109     108     53     54     
96     97     86     85     151     152     142     141     
106     107     95     93     159     160     150     149     
107     108     96     95     160     161     151     150     
108     109     97     96     161     162     152     151     
116     115     55     56     122     121     61     63     
115     116     106     105     168     169     159     158     
116     117     107     106     169     170     160     159     
117     118     108     107     170     171     161     160     
118     119     109     108     171     172     162     161     
55     61     121     115     62     60     120     114     
120     121     115     114     176     177     168     167     
121     122     116     115     177     178     169     168     
122     123     117     116     178     179     170     169     
123     124     118     117     179     180     171     170     
124     125     119     118     180     181     172     171     
126     127     123     122     182     183     179     178     
127     128     124     123     183     184     180     179     
128     129     125     124     184     185     181     180     
130     131     129     128     188     189     185     184     
139     138     82     83     149     148     94     93     
135     144     88     89     137     145     91     92     
89     88     144     135     90     87     143     136     
144     143     87     88     154     153     98     99     
143     144     135     136     199     200     192     193     
145     144     88     91     155     154     99     100     
144     145     137     135     200     201     194     192     
149     148     94     93     159     158     105     106     
149     150     140     139     205     206     195     196     
150     151     141     140     206     207     197     195     
151     152     142     141     207     208     198     197     
154     153     98     99     164     163     110     111     
153     154     144     143     209     210     200     199     
145     155     100     91     146     156     101     102     
155     154     99     100     165     164     111     112     
154     155     145     144     210     211     201     200     
146     156     101     102     147     157     103     104     
156     155     100     101     166     165     112     113     
155     156     146     145     211     212     202     201     
147     157     103     104     148     158     105     94     
157     156     101     103     167     166     113     114     
156     157     147     146     212     213     203     202     
158     157     103     105     168     167     114     115     
157     158     148     147     213     214     204     203     
158     159     149     148     214     215     205     204     
159     160     150     149     215     216     206     205     
160     161     151     150     216     217     207     206     
161     162     152     151     217     218     208     207     
163     164     154     153     219     220     210     209     
164     165     155     154     220     221     211     210     
165     166     156     155     221     222     212     211     
166     167     157     156     222     223     213     212     
167     168     158     157     223     224     214     213     
168     169     159     158     224     225     215     214     
169     170     160     159     225     226     216     215     
170     171     161     160     226     227     217     216     
171     172     162     161     227     228     218     217     
176     177     168     167     233     234     224     223     
177     178     169     168     234     235     225     224     
178     179     170     169     235     236     226     225     
179     180     171     170     236     237     227     226     
180     181     172     171     237     238     228     227     
182     183     179     178     245     246     236     235     
183     184     180     179     246     247     237     236     
184     185     181     180     247     248     238     237     
188     189     185     184     253     254     248     247     
200     201     194     192     269     270     261     262     
206     207     197     195     275     276     263     264     
207     208     198     197     276     277     267     263     
210     211     201     200     278     279     270     269     
211     212     202     201     279     280     271     270     
212     213     203     202     280     281     272     271     
213     214     204     203     281     282     273     272     
214     215     205     204     282     283     274     273     
215     216     206     205     283     284     275     274     
216     217     207     206     284     285     276     275     
217     218     208     207     285     286     277     276     
221     220     164     165     231     229     173     174     
220     221     211     210     287     289     279     278     
222     221     165     166     232     231     174     175     
221     222     212     211     289     290     280     279     
223     222     166     167     233     232     175     176     
222     223     213     212     290     291     281     280     
223     224     214     213     291     292     282     281     
224     225     215     214     292     293     283     282     
225     226     216     215     293     294     284     283     
226     227     217     216     294     295     285     284     
227     228     218     217     295     296     286     285     
229     231     221     220     299     300     289     287     
231     232     222     221     300     301     290     289     
232     233     223     222     301     302     291     290     
233     234     224     223     302     303     292     291     
234     235     225     224     303     304     293     292     
235     236     226     225     304     305     294     293     
236     237     227     226     305     306     295     294     
237     238     228     227     306     307     296     295     
246     245     182     183     252     251     186     187     
245     246     236     235     315     316     305     304     
247     246     183     184     253     252     187     188     
246     247     237     236     316     317     306     305     
247     248     238     237     317     318     307     306     
251     252     246     245     321     322     316     315     
252     253     247     246     322     323     317     316     
254     253     188     189     258     257     190     191     
253     254     248     247     323     324     318     317     
257     258     254     253     327     328     324     323     
275     276     263     264     345     346     337     336     
276     277     267     263     346     347     338     337     
278     279     270     269     348     349     339     340     
279     280     271     270     349     350     341     339     
280     281     272     271     350     351     342     341     
281     282     273     272     351     352     343     342     
282     283     274     273     352     353     344     343     
283     284     275     274     353     354     345     344     
284     285     276     275     354     355     346     345     
285     286     277     276     355     356     347     346     
287     289     279     278     357     358     349     348     
289     290     280     279     358     359     350     349     
290     291     281     280     359     360     351     350     
291     292     282     281     360     361     352     351     
292     293     283     282     361     362     353     352     
293     294     284     283     362     363     354     353     
294     295     285     284     363     364     355     354     
295     296     286     285     364     365     356     355     
220     229     299     287     219     230     297     288     
299     297     230     229     310     309     240     242     
299     300     289     287     366     367     358     357     
300     301     290     289     367     368     359     358     
301     302     291     290     368     369     360     359     
303     302     233     234     314     313     243     244     
302     303     292     291     369     370     361     360     
304     303     234     235     315     314     244     245     
303     304     293     292     370     371     362     361     
304     305     294     293     371     372     363     362     
305     306     295     294     372     373     364     363     
306     307     296     295     373     374     365     364     
230     240     309     297     241     239     308     298     
314     313     243     244     320     319     249     250     
313     314     303     302     378     379     370     369     
315     314     244     245     321     320     250     251     
314     315     304     303     379     380     371     370     
315     316     305     304     380     381     372     371     