Title = " tecplot file for 2D Cavity problem " 
variables = "x", "y", "z", "velX", "cellCentroidY" 
Zone T = "nmesh0" N = 402 E = 250 DATAPACKING = BLOCK, VARLOCATION = ([4-5]=CELLCENTERED), ZONETYPE=FEBRICK
0.45    0.45    0.5    0.5    0.45    
0.45    0.5    0.5    0.45    0.45    
0.5    0.5    0.45    0.45    0.5    
0.5    0.45    0.45    0.5    0.5    
0.45    0.45    0.5    0.5    0.45    
0.5    0.45    0.5    0.45    0.5    
0.45    0.5    0.45    0.5    0.45    
0.5    0.45    0.5    0.45    0.5    
0.45    0.5    0.45    0.5    0.45    
0.5    0.45    0.5    0.45    0.5    
0.45    0.5    0.45    0.5    0.45    
0.5    0.45    0.5    0.45    0.5    
0.45    0.5    0.45    0.5    0.45    
0.5    0.45    0.5    0.45    0.5    
0.45    0.5    0.45    0.5    0.45    
0.5    0.45    0.5    0.45    0.5    
0.45    0.5    0.45    0.5    0.4    
0.4    0.4    0.4    0.4    0.4    
0.4    0.4    0.4    0.4    0.4    
0.4    0.4    0.4    0.4    0.4    
0.4    0.4    0.4    0.4    0.4    
0.4    0.4    0.4    0.4    0.4    
0.4    0.4    0.4    0.4    0.4    
0.4    0.4    0.4    0.4    0.4    
0.4    0.4    0.4    0.4    0.4    
0.4    0.35    0.35    0.35    0.35    
0.35    0.35    0.35    0.35    0.35    
0.35    0.35    0.35    0.35    0.35    
0.35    0.35    0.35    0.35    0.35    
0.35    0.35    0.35    0.35    0.35    
0.35    0.35    0.35    0.35    0.35    
0.35    0.35    0.35    0.35    0.35    
0.35    0.35    0.35    0.35    0.35    
0.35    0.35    0.35    0.3    0.3    
0.3    0.3    0.3    0.3    0.3    
0.3    0.3    0.3    0.3    0.3    
0.3    0.3    0.3    0.3    0.3    
0.3    0.3    0.3    0.3    0.3    
0.3    0.3    0.3    0.3    0.3    
0.3    0.3    0.3    0.3    0.3    
0.3    0.3    0.3    0.3    0.25    
0.25    0.25    0.25    0.25    0.25    
0.25    0.25    0.25    0.25    0.25    
0.25    0.25    0.25    0.25    0.25    
0.25    0.25    0.25    0.25    0.25    
0.25    0.25    0.25    0.25    0.25    
0.25    0.25    0.25    0.25    0.25    
0.25    0.25    0.25    0.25    0.25    
0.2    0.2    0.2    0.2    0.2    
0.2    0.2    0.2    0.2    0.2    
0.2    0.2    0.2    0.2    0.2    
0.2    0.2    0.2    0.2    0.2    
0.2    0.2    0.2    0.2    0.2    
0.2    0.2    0.2    0.2    0.2    
0.2    0.2    0.2    0.2    0.2    
0.2    0.15    0.15    0.15    0.15    
0.15    0.15    0.15    0.15    0.15    
0.15    0.15    0.15    0.15    0.15    
0.15    0.15    0.15    0.15    0.15    
0.15    0.15    0.15    0.15    0.15    
0.15    0.15    0.15    0.15    0.15    
0.15    0.15    0.15    0.15    0.15    
0.15    0.15    0.1    0.1    0.1    
0.1    0.1    0.1    0.1    0.1    
0.1    0.1    0.1    0.1    0.1    
0.1    0.1    0.1    0.1    0.1    
0.1    0.1    0.1    0.1    0.1    
0.1    0.1    0.1    0.1    0.1    
0.1    0.1    0.05    0.05    0.05    
0.05    0.05    0.05    0.05    0.05    
0.05    0.05    0.05    0.05    0.05    
0.05    0.05    0.05    0.05    0.05    
0.05    0.05    0.05    0.05    0.05    
0.05    0.05    0.05    0.05    0.05    
0.05    0.05    6.9388939039e-18    0.0    0.0    
0.0    -1.3877787808e-17    -2.7755575616e-17    0.0    0.0    
0.0    0.0    0.0    0.0    0.0    
0.0    -2.7755575616e-17    0.0    0.0    0.0    
0.0    0.0    0.0    0.0    0.0    
0.0    2.7755575616e-17    0.0    0.0    0.0    
0.0    0.0    
-0.25    -0.25    -0.25    -0.25    -0.2    
-0.2    -0.2    -0.2    -0.15    -0.15    
-0.15    -0.15    -0.1    -0.1    -0.1    
-0.1    -0.05    -0.05    -0.05    -0.05    
1.0408340856e-17    -1.7173762412e-17    -1.9081958236e-17    0.0    -0.25    
-0.25    -0.2    -0.2    -0.15    -0.15    
-0.1    -0.1    -0.05    -0.05    -9.3675067703e-18    
-1.0408340856e-17    -0.25    -0.25    -0.2    -0.2    
-0.15    -0.15    -0.1    -0.1    -0.05    
-0.05    1.2490009027e-17    1.3877787808e-17    -0.25    -0.25    
-0.2    -0.2    -0.15    -0.15    -0.1    
-0.1    -0.05    -0.05    2.4980018054e-17    2.7755575616e-17    
-0.25    -0.25    -0.2    -0.2    -0.15    
-0.15    -0.1    -0.1    -0.05    -0.05    
6.2450045135e-18    6.9388939039e-18    -0.25    -0.25    -0.2    
-0.2    -0.15    -0.15    -0.1    -0.1    
-0.05    -0.05    1.2490009027e-17    1.3877787808e-17    -0.25    
-0.25    -0.2    -0.2    -0.15    -0.15    
-0.1    -0.1    -0.05    -0.05    6.9388939039e-18    
-1.5265566589e-17    -0.25    -0.2    -0.15    -0.1    
-0.05    -8.3266726847e-18    -0.25    -0.2    -0.15    
-0.1    -0.05    1.1102230246e-17    -0.25    -0.2    
-0.15    -0.1    -0.05    2.2204460493e-17    -0.25    
-0.2    -0.15    -0.1    -0.05    5.5511151231e-18    
-0.25    -0.2    -0.15    -0.1    -0.05    
1.1102230246e-17    -0.25    -0.25    -0.2    -0.2    
-0.15    -0.15    -0.1    -0.1    -0.05    
-0.05    1.3877787808e-17    -1.3357370765e-17    -0.25    -0.2    
-0.15    -0.1    -0.05    -7.2858385991e-18    -0.25    
-0.2    -0.15    -0.1    -0.05    9.7144514655e-18    
-0.25    -0.2    -0.15    -0.1    -0.05    
1.9428902931e-17    -0.25    -0.2    -0.15    -0.1    
-0.05    4.8572257327e-18    -0.25    -0.2    -0.15    
-0.1    -0.05    9.7144514655e-18    -0.25    -0.25    
-0.2    -0.2    -0.15    -0.15    -0.1    
-0.1    -0.05    -0.05    6.9388939039e-18    -1.1449174941e-17    
-0.25    -0.2    -0.15    -0.1    -0.05    
-6.2450045135e-18    -0.25    -0.2    -0.15    -0.1    
-0.05    8.3266726847e-18    -0.25    -0.2    -0.15    
-0.1    -0.05    1.6653345369e-17    -0.25    -0.2    
-0.15    -0.1    -0.05    4.1633363423e-18    -0.25    
-0.25    -0.2    -0.2    -0.15    -0.15    
-0.1    -0.1    -0.05    -0.05    -6.9388939039e-18    
-9.5409791179e-18    -0.25    -0.2    -0.15    -0.1    
-0.05    -5.2041704279e-18    -0.25    -0.2    -0.15    
-0.1    -0.05    6.9388939039e-18    -0.25    -0.2    
-0.15    -0.1    -0.05    1.3877787808e-17    -0.25    
-0.2    -0.15    -0.1    -0.05    3.469446952e-18    
-0.25    -0.25    -0.2    -0.2    -0.15    
-0.15    -0.1    -0.1    -0.05    -0.05    
1.3877787808e-17    -7.6327832943e-18    -0.25    -0.2    -0.15    
-0.1    -0.05    -4.1633363423e-18    -0.25    -0.2    
-0.15    -0.1    -0.05    5.5511151231e-18    -0.25    
-0.2    -0.15    -0.1    -0.05    1.1102230246e-17    
-0.25    -0.2    -0.15    -0.1    -0.05    
2.7755575616e-18    -0.25    -0.25    -0.2    -0.2    
-0.15    -0.15    -0.1    -0.1    -0.05    
-0.05    1.3877787808e-17    -5.7245874707e-18    -0.25    -0.2    
-0.15    -0.1    -0.05    -3.1225022568e-18    -0.25    
-0.2    -0.15    -0.1    -0.05    4.1633363423e-18    
-0.25    -0.2    -0.15    -0.1    -0.05    
8.3266726847e-18    -0.25    -0.2    -0.15    -0.1    
-0.05    2.0816681712e-18    -0.25    -0.25    -0.2    
-0.2    -0.15    -0.15    -0.1    -0.1    
-0.05    -0.05    0.0    -3.8163916471e-18    -0.25    
-0.2    -0.15    -0.1    -0.05    -2.0816681712e-18    
-0.25    -0.2    -0.15    -0.1    -0.05    
2.7755575616e-18    -0.25    -0.2    -0.15    -0.1    
-0.05    5.5511151231e-18    -0.25    -0.25    -0.2    
-0.2    -0.15    -0.15    -0.1    -0.1    
-0.05    -0.05    0.0    -1.9081958236e-18    -0.25    
-0.2    -0.15    -0.1    -0.05    -1.0408340856e-18    
-0.25    -0.2    -0.15    -0.1    -0.05    
1.3877787808e-18    -0.25    -0.2    -0.15    -0.1    
-0.05    2.7755575616e-18    -0.25    -0.25    -0.2    
-0.2    -0.15    -0.15    -0.1    -0.1    
-0.05    -0.05    0.0    0.0    -0.25    
-0.2    -0.15    -0.1    -0.05    0.0    
-0.25    -0.2    -0.15    -0.1    -0.05    
0.0    -0.25    -0.2    -0.15    -0.1    
-0.05    0.0    
0.5    0.45    0.45    0.5    0.5    
0.45    0.45    0.5    0.5    0.45    
0.45    0.5    0.5    0.45    0.45    
0.5    0.5    0.45    0.45    0.5    
0.5    0.45    0.45    0.5    0.4    
0.4    0.4    0.4    0.4    0.4    
0.4    0.4    0.4    0.4    0.4    
0.4    0.35    0.35    0.35    0.35    
0.35    0.35    0.35    0.35    0.35    
0.35    0.35    0.35    0.3    0.3    
0.3    0.3    0.3    0.3    0.3    
0.3    0.3    0.3    0.3    0.3    
0.25    0.25    0.25    0.25    0.25    
0.25    0.25    0.25    0.25    0.25    
0.25    0.25    0.2    0.2    0.2    
0.2    0.2    0.2    0.2    0.2    
0.2    0.2    0.2    0.2    0.5    
0.45    0.5    0.45    0.5    0.45    
0.5    0.45    0.5    0.45    0.5    
0.45    0.4    0.4    0.4    0.4    
0.4    0.4    0.35    0.35    0.35    
0.35    0.35    0.35    0.3    0.3    
0.3    0.3    0.3    0.3    0.25    
0.25    0.25    0.25    0.25    0.25    
0.2    0.2    0.2    0.2    0.2    
0.2    0.5    0.45    0.5    0.45    
0.5    0.45    0.5    0.45    0.5    
0.45    0.5    0.45    0.4    0.4    
0.4    0.4    0.4    0.4    0.35    
0.35    0.35    0.35    0.35    0.35    
0.3    0.3    0.3    0.3    0.3    
0.3    0.25    0.25    0.25    0.25    
0.25    0.25    0.2    0.2    0.2    
0.2    0.2    0.2    0.5    0.45    
0.5    0.45    0.5    0.45    0.5    
0.45    0.5    0.45    0.5    0.45    
0.4    0.4    0.4    0.4    0.4    
0.4    0.35    0.35    0.35    0.35    
0.35    0.35    0.3    0.3    0.3    
0.3    0.3    0.3    0.25    0.25    
0.25    0.25    0.25    0.25    0.5    
0.45    0.5    0.45    0.5    0.45    
0.5    0.45    0.5    0.45    0.5    
0.45    0.4    0.4    0.4    0.4    
0.4    0.4    0.35    0.35    0.35    
0.35    0.35    0.35    0.3    0.3    
0.3    0.3    0.3    0.3    0.25    
0.25    0.25    0.25    0.25    0.25    
0.5    0.45    0.5    0.45    0.5    
0.45    0.5    0.45    0.5    0.45    
0.5    0.45    0.4    0.4    0.4    
0.4    0.4    0.4    0.35    0.35    
0.35    0.35    0.35    0.35    0.3    
0.3    0.3    0.3    0.3    0.3    
0.25    0.25    0.25    0.25    0.25    
0.25    0.5    0.45    0.5    0.45    
0.5    0.45    0.5    0.45    0.5    
0.45    0.5    0.45    0.4    0.4    
0.4    0.4    0.4    0.4    0.35    
0.35    0.35    0.35    0.35    0.35    
0.3    0.3    0.3    0.3    0.3    
0.3    0.25    0.25    0.25    0.25    
0.25    0.25    0.5    0.45    0.5    
0.45    0.5    0.45    0.5    0.45    
0.5    0.45    0.5    0.45    0.4    
0.4    0.4    0.4    0.4    0.4    
0.35    0.35    0.35    0.35    0.35    
0.35    0.3    0.3    0.3    0.3    
0.3    0.3    0.5    0.45    0.5    
0.45    0.5    0.45    0.5    0.45    
0.5    0.45    0.5    0.45    0.4    
0.4    0.4    0.4    0.4    0.4    
0.35    0.35    0.35    0.35    0.35    
0.35    0.3    0.3    0.3    0.3    
0.3    0.3    0.5    0.45    0.5    
0.45    0.5    0.45    0.5    0.45    
0.5    0.45    0.5    0.45    0.4    
0.4    0.4    0.4    0.4    0.4    
0.35    0.35    0.35    0.35    0.35    
0.35    0.3    0.3    0.3    0.3    
0.3    0.3    
399.79959692    399.846733063    399.544713075    399.544713075    399.740085235    
399.404978532    399.404978533    399.663493274    399.228795843    399.228795843    
399.562926782    399.002467088    399.002467089    398.706056823    398.706056823    
399.255945247    398.647536542    399.028458849    398.233285039    398.74235901    
397.711681032    398.376083648    397.042840031    397.898637077    396.169111501    
398.988356646    397.789695466    398.680661355    397.115267801    398.294990011    
396.268184721    397.80346562    395.185656739    397.166643936    393.778038316    
398.748692655    396.994727397    398.370373843    396.082450138    397.897993753    
394.940450333    397.29900126    393.487540478    396.528125536    391.609631658    
398.542341739    396.282671273    398.104340619    395.160928518    397.559557107    
393.762034047    396.872243686    391.991180221    395.99351333    389.717426521    
395.669545917    394.370752642    392.75727987    390.7250067    388.132547775    
399.255945247    399.02845885    398.742359011    398.376083649    397.898637078    
397.789695467    397.115267801    396.268184722    395.18565674    393.778038319    
396.387635732    395.2895326    393.913693415    392.16125324    389.892795928    
395.08820106    393.602665426    391.747502599    389.394858306    386.367292989    
393.924144443    392.097289174    389.824371593    386.956072325    383.288763488    
392.921681789    390.806216629    388.184157088    384.89151099    380.708465825    
398.988356646    398.680661357    398.294990013    397.803465623    397.166643939    
396.994727398    396.082450139    394.940450336    393.487540486    391.609631669    
395.088201061    393.602665429    391.747502605    389.394858316    386.367293003    
393.320977612    391.311016984    388.808976515    385.649488196    381.606737266    
391.737596571    389.265408454    386.199174335    382.345749367    377.446064953    
398.748692657    398.370373846    397.897993757    397.299001266    396.528125544    
396.282671278    395.160928524    393.762034059    391.991180239    389.717426546    
393.924144455    392.097289189    389.824371615    386.956072356    383.288763523    
391.73759659    389.265408472    386.199174363    382.345749401    377.446064995    
389.778128579    386.736837396    382.978128079    378.276417501    372.334643017    
398.542341742    398.104340622    397.559557114    396.872243697    395.993513344    
395.669545928    394.370752656    392.757279894    390.725006734    388.132547816    
392.921681809    390.806216651    388.184157128    384.891511049    380.708465899    
390.373769591    387.510536328    383.972412091    379.547278998    373.95561566    
388.090007448    384.566975424    380.228582475    374.827117617    368.042308188    
398.373345087    397.887358994    397.285041824    396.528627415    395.567234345    
395.167375266    393.726204336    391.942171691    389.705277726    386.868394772    
392.100522646    389.752882818    386.853151475    383.228085182    378.649032057    
389.256403174    386.078435746    382.16474325    377.29126817    371.167433954    
386.706668117    382.795688015    377.995553529    372.044667408    364.610389099    
398.244541871    397.722581086    397.077577546    396.270594304    395.249798579    
394.784615333    393.236684616    391.326074909    388.939380584    385.926753133    
391.474554259    388.952766078    385.846868789    381.978270613    377.114189428    
388.404503859    384.990360911    380.797638484    375.595400222    369.088016558    
398.157784228    397.611904569    396.938750694    396.098775998    395.039773814    
394.526788554    392.90786599    390.913766253    388.429312847    385.303602611    
391.05286496    388.415245109    385.173311192    381.145699474    376.09807327    
387.830544964    384.259261875    379.882333687    374.465276225    367.710648492    
398.114157962    397.556349983    396.869230486    396.013000329    394.935343326    
394.397135951    392.742806874    390.707281918    388.174652178    384.99371315    
390.840799381    388.145400606    384.835953868    380.729952715    375.592640512    
387.541881758    383.892197894    379.423823002    373.900817614    367.02529995    

-0.175    -0.225    -0.225    -0.225    -0.125    
-0.175    -0.175    -0.075    -0.125    -0.125    
-0.025    -0.075    -0.075    -0.025    -0.025    
-0.225    -0.225    -0.175    -0.175    -0.125    
-0.125    -0.075    -0.075    -0.025    -0.025    
-0.225    -0.225    -0.175    -0.175    -0.125    
-0.125    -0.075    -0.075    -0.025    -0.025    
-0.225    -0.225    -0.175    -0.175    -0.125    
-0.125    -0.075    -0.075    -0.025    -0.025    
-0.225    -0.225    -0.175    -0.175    -0.125    
-0.125    -0.075    -0.075    -0.025    -0.025    
-0.225    -0.175    -0.125    -0.075    -0.025    
-0.225    -0.175    -0.125    -0.075    -0.025    
-0.225    -0.175    -0.125    -0.075    -0.025    
-0.225    -0.175    -0.125    -0.075    -0.025    
-0.225    -0.175    -0.125    -0.075    -0.025    
-0.225    -0.175    -0.125    -0.075    -0.025    
-0.225    -0.175    -0.125    -0.075    -0.025    
-0.225    -0.175    -0.125    -0.075    -0.025    
-0.225    -0.175    -0.125    -0.075    -0.025    
-0.225    -0.175    -0.125    -0.075    -0.025    
-0.225    -0.175    -0.125    -0.075    -0.025    
-0.225    -0.175    -0.125    -0.075    -0.025    
-0.225    -0.175    -0.125    -0.075    -0.025    
-0.225    -0.175    -0.125    -0.075    -0.025    
-0.225    -0.175    -0.125    -0.075    -0.025    
-0.225    -0.175    -0.125    -0.075    -0.025    
-0.225    -0.175    -0.125    -0.075    -0.025    
-0.225    -0.175    -0.125    -0.075    -0.025    
-0.225    -0.175    -0.125    -0.075    -0.025    
-0.225    -0.175    -0.125    -0.075    -0.025    
-0.225    -0.175    -0.125    -0.075    -0.025    
-0.225    -0.175    -0.125    -0.075    -0.025    
-0.225    -0.175    -0.125    -0.075    -0.025    
-0.225    -0.175    -0.125    -0.075    -0.025    
-0.225    -0.175    -0.125    -0.075    -0.025    
-0.225    -0.175    -0.125    -0.075    -0.025    
-0.225    -0.175    -0.125    -0.075    -0.025    
-0.225    -0.175    -0.125    -0.075    -0.025    
-0.225    -0.175    -0.125    -0.075    -0.025    
-0.225    -0.175    -0.125    -0.075    -0.025    
-0.225    -0.175    -0.125    -0.075    -0.025    
-0.225    -0.175    -0.125    -0.075    -0.025    
-0.225    -0.175    -0.125    -0.075    -0.025    
-0.225    -0.175    -0.125    -0.075    -0.025    
-0.225    -0.175    -0.125    -0.075    -0.025    
-0.225    -0.175    -0.125    -0.075    -0.025    
-0.225    -0.175    -0.125    -0.075    -0.025    
-0.225    -0.175    -0.125    -0.075    -0.025    
-0.225    -0.175    -0.125    -0.075    -0.025    

5     6     7     8     9     10     11     12     
8     7     6     5     4     3     2     1     
6     2     3     7     27     25     26     28     
2     6     5     1     86     88     87     85     
9     10     11     12     13     14     15     16     
10     6     7     11     29     27     28     30     
6     10     9     5     88     90     89     87     
13     14     15     16     17     18     19     20     
14     10     11     15     31     29     30     32     
10     14     13     9     90     92     91     89     
17     18     19     20     21     22     23     24     
18     14     15     19     33     31     32     34     
14     18     17     13     92     94     93     91     
22     18     19     23     35     33     34     36     
18     22     21     17     94     96     95     93     
27     25     26     28     39     37     38     40     
25     27     6     2     97     98     88     86     
29     27     28     30     41     39     40     42     
27     29     10     6     98     99     90     88     
31     29     30     32     43     41     42     44     
29     31     14     10     99     100     92     90     
33     31     32     34     45     43     44     46     
31     33     18     14     100     101     94     92     
35     33     34     36     47     45     46     48     
33     35     22     18     101     102     96     94     
39     37     38     40     51     49     50     52     
37     39     27     25     103     104     98     97     
41     39     40     42     53     51     52     54     
39     41     29     27     104     105     99     98     
43     41     42     44     55     53     54     56     
41     43     31     29     105     106     100     99     
45     43     44     46     57     55     56     58     
43     45     33     31     106     107     101     100     
47     45     46     48     59     57     58     60     
45     47     35     33     107     108     102     101     
51     49     50     52     63     61     62     64     
49     51     39     37     109     110     104     103     
53     51     52     54     65     63     64     66     
51     53     41     39     110     111     105     104     
55     53     54     56     67     65     66     68     
53     55     43     41     111     112     106     105     
57     55     56     58     69     67     68     70     
55     57     45     43     112     113     107     106     
59     57     58     60     71     69     70     72     
57     59     47     45     113     114     108     107     
63     61     62     64     75     73     74     76     
61     63     51     49     115     116     110     109     
65     63     64     66     77     75     76     78     
63     65     53     51     116     117     111     110     
67     65     66     68     79     77     78     80     
65     67     55     53     117     118     112     111     
69     67     68     70     81     79     80     82     
67     69     57     55     118     119     113     112     
71     69     70     72     83     81     82     84     
69     71     59     57     119     120     114     113     
73     75     63     61     121     122     116     115     
75     77     65     63     122     123     117     116     
77     79     67     65     123     124     118     117     
79     81     69     67     124     125     119     118     
81     83     71     69     125     126     120     119     
86     88     87     85     128     130     129     127     
88     90     89     87     130     132     131     129     
90     92     91     89     132     134     133     131     
92     94     93     91     134     136     135     133     
94     96     95     93     136     138     137     135     
97     98     88     86     139     140     130     128     
98     99     90     88     140     141     132     130     
99     100     92     90     141     142     134     132     
100     101     94     92     142     143     136     134     
101     102     96     94     143     144     138     136     
103     104     98     97     145     146     140     139     
104     105     99     98     146     147     141     140     
105     106     100     99     147     148     142     141     
106     107     101     100     148     149     143     142     
107     108     102     101     149     150     144     143     
109     110     104     103     151     152     146     145     
110     111     105     104     152     153     147     146     
111     112     106     105     153     154     148     147     
112     113     107     106     154     155     149     148     
113     114     108     107     155     156     150     149     
115     116     110     109     157     158     152     151     
116     117     111     110     158     159     153     152     
117     118     112     111     159     160     154     153     
118     119     113     112     160     161     155     154     
119     120     114     113     161     162     156     155     
121     122     116     115     163     164     158     157     
122     123     117     116     164     165     159     158     
123     124     118     117     165     166     160     159     
124     125     119     118     166     167     161     160     
125     126     120     119     167     168     162     161     
128     130     129     127     170     172     171     169     
130     132     131     129     172     174     173     171     
132     134     133     131     174     176     175     173     
134     136     135     133     176     178     177     175     
136     138     137     135     178     180     179     177     
139     140     130     128     181     182     172     170     
140     141     132     130     182     183     174     172     
141     142     134     132     183     184     176     174     
142     143     136     134     184     185     178     176     
143     144     138     136     185     186     180     178     
145     146     140     139     187     188     182     181     
146     147     141     140     188     189     183     182     
147     148     142     141     189     190     184     183     
148     149     143     142     190     191     185     184     
149     150     144     143     191     192     186     185     
151     152     146     145     193     194     188     187     
152     153     147     146     194     195     189     188     
153     154     148     147     195     196     190     189     
154     155     149     148     196     197     191     190     
155     156     150     149     197     198     192     191     
157     158     152     151     199     200     194     193     
158     159     153     152     200     201     195     194     
159     160     154     153     201     202     196     195     
160     161     155     154     202     203     197     196     
161     162     156     155     203     204     198     197     
170     172     171     169     206     208     207     205     
172     174     173     171     208     210     209     207     
174     176     175     173     210     212     211     209     
176     178     177     175     212     214     213     211     
178     180     179     177     214     216     215     213     
181     182     172     170     217     218     208     206     
182     183     174     172     218     219     210     208     
183     184     176     174     219     220     212     210     
184     185     178     176     220     221     214     212     
185     186     180     178     221     222     216     214     
187     188     182     181     223     224     218     217     
188     189     183     182     224     225     219     218     
189     190     184     183     225     226     220     219     
190     191     185     184     226     227     221     220     
191     192     186     185     227     228     222     221     
193     194     188     187     229     230     224     223     
194     195     189     188     230     231     225     224     
195     196     190     189     231     232     226     225     
196     197     191     190     232     233     227     226     
197     198     192     191     233     234     228     227     
199     200     194     193     235     236     230     229     
200     201     195     194     236     237     231     230     
201     202     196     195     237     238     232     231     
202     203     197     196     238     239     233     232     
203     204     198     197     239     240     234     233     
206     208     207     205     242     244     243     241     
208     210     209     207     244     246     245     243     
210     212     211     209     246     248     247     245     
212     214     213     211     248     250     249     247     
214     216     215     213     250     252     251     249     
217     218     208     206     253     254     244     242     
218     219     210     208     254     255     246     244     
219     220     212     210     255     256     248     246     
220     221     214     212     256     257     250     248     
221     222     216     214     257     258     252     250     
223     224     218     217     259     260     254     253     
224     225     219     218     260     261     255     254     
225     226     220     219     261     262     256     255     
226     227     221     220     262     263     257     256     
227     228     222     221     263     264     258     257     
229     230     224     223     265     266     260     259     
230     231     225     224     266     267     261     260     
231     232     226     225     267     268     262     261     
232     233     227     226     268     269     263     262     
233     234     228     227     269     270     264     263     
235     236     230     229     271     272     266     265     
236     237     231     230     272     273     267     266     
237     238     232     231     273     274     268     267     
238     239     233     232     274     275     269     268     
239     240     234     233     275     276     270     269     
242     244     243     241     278     280     279     277     
244     246     245     243     280     282     281     279     
246     248     247     245     282     284     283     281     
248     250     249     247     284     286     285     283     
250     252     251     249     286     288     287     285     
253     254     244     242     289     290     280     278     
254     255     246     244     290     291     282     280     
255     256     248     246     291     292     284     282     
256     257     250     248     292     293     286     284     
257     258     252     250     293     294     288     286     
259     260     254     253     295     296     290     289     
260     261     255     254     296     297     291     290     
261     262     256     255     297     298     292     291     
262     263     257     256     298     299     293     292     
263     264     258     257     299     300     294     293     
265     266     260     259     301     302     296     295     
266     267     261     260     302     303     297     296     
267     268     262     261     303     304     298     297     
268     269     263     262     304     305     299     298     
269     270     264     263     305     306     300     299     
271     272     266     265     307     308     302     301     
272     273     267     266     308     309     303     302     
273     274     268     267     309     310     304     303     
274     275     269     268     310     311     305     304     
275     276     270     269     311     312     306     305     
278     280     279     277     314     316     315     313     
280     282     281     279     316     318     317     315     
282     284     283     281     318     320     319     317     
284     286     285     283     320     322     321     319     
286     288     287     285     322     324     323     321     
289     290     280     278     325     326     316     314     
290     291     282     280     326     327     318     316     
291     292     284     282     327     328     320     318     
292     293     286     284     328     329     322     320     