Title = " tecplot file for 2D Cavity problem " 
variables = "x", "y", "z", "velX", "cellCentroidY" 
Zone T = "nmesh0" N = 439 E = 250 DATAPACKING = BLOCK, VARLOCATION = ([4-5]=CELLCENTERED),  ZONETYPE=FEBRICK 
0.1    0.1    0.1    0.1    0.1    
0.1    0.1    0.1    0.1    0.1    
0.05    0.05    0.05    0.05    0.05    
0.05    0.05    0.05    0.05    0.05    
0.05    0.05    0.05    0.05    0.05    
0.05    0.05    0.05    0.05    0.05    
0.05    0.05    0.05    0.05    0.05    
0.05    0.05    0.05    0.05    0.05    
0.05    0.05    0.05    0.05    0.05    
0.05    0.05    0.05    0.05    0.05    
0.05    0.05    -2.7755575616e-17    -2.7755575616e-17    0.0    
0.0    0.0    -2.7755575616e-17    -2.7755575616e-17    -1.3877787808e-17    
-2.7755575616e-17    0.0    2.7755575616e-17    0.0    0.0    
0.0    0.0    2.7755575616e-17    -2.7755575616e-17    -2.7755575616e-17    
0.0    0.0    0.0    0.0    0.0    
0.0    -2.7755575616e-17    -2.7755575616e-17    0.0    0.0    
0.0    -2.7755575616e-17    -2.7755575616e-17    -1.3877787808e-17    -2.7755575616e-17    
0.0    0.0    0.0    0.0    0.0    
0.0    0.0    -2.7755575616e-17    0.0    0.0    
0.0    0.0    -0.05    -0.05    -0.05    
-0.05    -0.05    -0.05    -0.05    -0.05    
-0.05    -0.05    -0.05    -0.05    -0.05    
-0.05    -0.05    -0.05    -0.05    -0.05    
-0.05    -0.05    -0.05    -0.05    -0.05    
-0.05    -0.05    -0.05    -0.05    -0.05    
-0.05    -0.05    -0.05    -0.05    -0.05    
-0.05    -0.05    -0.05    -0.05    -0.05    
-0.05    -0.05    -0.05    -0.05    -0.05    
-0.05    -0.05    -0.05    -0.05    -0.05    
-0.05    -0.05    -0.05    -0.05    -0.1    
-0.1    -0.1    -0.1    -0.1    -0.1    
-0.1    -0.1    -0.1    -0.1    -0.1    
-0.1    -0.1    -0.1    -0.1    -0.1    
-0.1    -0.1    -0.1    -0.1    -0.1    
-0.1    -0.1    -0.1    -0.1    -0.1    
-0.1    -0.1    -0.1    -0.1    -0.1    
-0.1    -0.1    -0.1    -0.1    -0.1    
-0.1    -0.1    -0.1    -0.1    -0.1    
-0.1    -0.1    -0.1    -0.1    -0.1    
-0.1    -0.1    -0.1    -0.1    -0.1    
-0.1    -0.1    -0.1    -0.1    -0.1    
-0.1    -0.1    -0.1    -0.1    -0.1    
-0.15    -0.15    -0.15    -0.15    -0.15    
-0.15    -0.15    -0.15    -0.15    -0.15    
-0.15    -0.15    -0.15    -0.15    -0.15    
-0.15    -0.15    -0.15    -0.15    -0.15    
-0.15    -0.15    -0.15    -0.15    -0.15    
-0.15    -0.15    -0.15    -0.15    -0.15    
-0.15    -0.15    -0.15    -0.15    -0.15    
-0.15    -0.15    -0.15    -0.15    -0.15    
-0.15    -0.15    -0.15    -0.15    -0.15    
-0.15    -0.15    -0.15    -0.15    -0.15    
-0.15    -0.15    -0.15    -0.15    -0.15    
-0.15    -0.15    -0.15    -0.15    -0.15    
-0.15    -0.15    -0.15    -0.15    -0.15    
-0.15    -0.15    -0.15    -0.2    -0.2    
-0.2    -0.2    -0.2    -0.2    -0.2    
-0.2    -0.2    -0.2    -0.2    -0.2    
-0.2    -0.2    -0.2    -0.2    -0.2    
-0.2    -0.2    -0.2    -0.2    -0.2    
-0.2    -0.2    -0.2    -0.2    -0.2    
-0.2    -0.2    -0.2    -0.2    -0.2    
-0.2    -0.2    -0.2    -0.2    -0.2    
-0.2    -0.2    -0.2    -0.2    -0.2    
-0.2    -0.2    -0.2    -0.2    -0.2    
-0.2    -0.2    -0.2    -0.2    -0.2    
-0.2    -0.2    -0.2    -0.2    -0.2    
-0.2    -0.2    -0.2    -0.25    -0.25    
-0.25    -0.25    -0.25    -0.25    -0.25    
-0.25    -0.25    -0.25    -0.25    -0.25    
-0.25    -0.25    -0.25    -0.25    -0.25    
-0.25    -0.25    -0.25    -0.25    -0.25    
-0.25    -0.25    -0.25    -0.25    -0.25    
-0.25    -0.25    -0.25    -0.25    -0.25    
-0.25    -0.25    -0.25    -0.25    -0.25    
-0.25    -0.25    -0.25    -0.25    -0.25    
-0.25    -0.25    -0.25    -0.25    -0.25    
-0.25    -0.25    -0.25    -0.25    -0.3    
-0.3    -0.3    -0.3    -0.3    -0.3    
-0.3    -0.3    -0.3    -0.3    -0.3    
-0.3    -0.3    -0.3    -0.3    -0.3    
-0.3    -0.3    -0.3    -0.3    -0.3    
-0.3    -0.3    -0.3    -0.3    -0.3    
-0.3    -0.3    -0.3    -0.3    -0.3    
-0.3    -0.3    -0.3    -0.35    -0.35    
-0.35    -0.35    -0.35    -0.35    -0.35    
-0.35    -0.35    -0.35    -0.35    -0.35    
-0.35    -0.35    -0.35    -0.35    
0.3    0.35    0.35    0.3    0.4    
0.4    0.25    0.3    0.3    0.25    
0.35    0.3    0.4    0.15    0.2    
0.2    0.15    0.25    0.25    0.3    
0.35    0.4    0.45    0.45    0.5    
0.5    0.15    0.2    0.25    0.3    
0.35    0.4    0.45    0.5    0.15    
0.2    0.25    0.3    0.35    0.4    
0.45    0.5    0.15    0.2    0.25    
0.3    0.35    0.4    0.45    0.5    
0.15    0.2    0.2    0.15    0.25    
0.3    0.35    0.4    0.45    0.5    
0.15    0.2    0.25    0.3    0.35    
0.4    0.45    0.5    0.15    0.2    
0.25    0.3    0.35    0.4    0.45    
0.5    0.15    0.2    0.25    0.3    
0.35    0.4    0.45    0.5    0.15    
0.2    0.25    0.3    0.35    0.4    
0.45    0.5    0.15    0.2    0.25    
0.3    0.35    0.2    0.15    0.2    
0.15    0.25    0.25    0.3    0.35    
0.4    0.45    0.5    0.15    0.2    
0.25    0.3    0.35    0.4    0.45    
0.5    0.05    0.1    0.1    0.05    
0.15    0.2    0.25    0.3    0.35    
0.4    0.45    0.5    0.15    0.2    
0.25    0.3    0.35    0.4    0.45    
0.5    0.15    0.2    0.25    0.3    
0.35    0.4    0.45    0.5    0.15    
0.2    0.25    0.3    0.35    0.2    
0.15    0.2    0.15    0.25    0.35    
0.4    0.4    0.35    0.45    0.45    
0.5    0.5    0.15    0.2    0.25    
0.3    0.3    0.35    0.4    0.45    
0.5    0.1    0.05    0.15    0.2    
0.25    0.3    0.35    0.4    0.45    
0.5    0.05    0.1    0.15    0.2    
0.25    0.3    0.35    0.4    0.45    
0.5    0.15    0.2    0.25    0.3    
0.35    0.4    0.45    0.5    0.2    
0.25    0.3    0.35    0.4    0.45    
0.5    0.2    0.25    0.3    0.35    
0.2    0.15    0.4    0.35    0.45    
0.5    0.15    0.2    0.25    0.3    
0.3    0.25    0.35    0.4    0.45    
0.5    0.05    0.1    0.1    0.05    
0.15    0.2    0.25    0.3    0.35    
0.4    0.45    0.5    0.1    0.05    
0.15    0.2    0.25    0.3    0.35    
0.4    0.45    0.5    0.05    0.1    
0.15    0.2    0.25    0.3    0.35    
0.4    0.45    0.5    0.15    0.1    
0.2    0.25    0.3    0.35    0.4    
0.45    0.5    0.2    0.25    0.3    
0.35    0.4    0.45    0.5    0.2    
0.25    0.3    0.35    0.3    0.25    
0.35    0.4    0.45    0.5    0.1    
0.05    0.15    0.2    0.25    0.3    
0.35    0.4    0.45    0.5    0.05    
0.1    0.15    0.2    0.25    0.3    
0.35    0.4    0.45    0.5    0.05    
0.1    0.15    0.2    0.25    0.3    
0.35    0.4    0.45    0.5    0.1    
0.15    0.2    0.25    0.3    0.35    
0.4    0.45    0.5    0.1    0.15    
0.2    0.25    0.3    0.35    0.4    
0.45    0.5    0.25    0.3    0.35    
0.4    0.45    0.5    0.3    0.25    
0.35    0.4    0.45    0.5    0.1    
0.05    0.15    0.2    0.25    0.3    
0.35    0.4    0.45    0.5    0.05    
0.1    0.15    0.2    0.25    0.3    
0.35    0.4    0.45    0.5    0.05    
0.1    0.15    0.2    0.25    0.3    
0.35    0.4    0.45    0.5    0.1    
0.15    0.2    0.25    0.3    0.35    
0.4    0.45    0.5    0.1    0.15    
0.2    0.25    0.3    0.35    0.3    
0.25    0.35    0.4    0.45    0.5    
0.15    0.1    0.2    0.25    0.3    
0.35    0.4    0.45    0.5    0.1    
0.15    0.2    0.25    0.3    0.35    
0.4    0.45    0.5    0.15    0.2    
0.25    0.3    0.35    0.4    0.45    
0.5    0.45    0.5    0.4    0.35    
0.45    0.5    0.35    0.4    0.45    
0.5    0.35    0.4    0.45    0.5    
0.45    0.5    0.45    0.5    
0.15    0.15    0.2    0.2    0.15    
0.2    0.0    0.0    0.05    0.05    
0.2    0.2    0.2    0.15    0.15    
0.2    0.2    0.15    0.2    0.15    
0.15    0.15    0.15    0.2    0.15    
0.2    0.1    0.1    0.1    0.1    
0.1    0.1    0.1    0.1    0.05    
0.05    0.05    0.05    0.05    0.05    
0.05    0.05    0.0    0.0    0.0    
0.0    0.0    0.0    0.0    0.0    
-0.05    -0.05    0.2    0.2    0.2    
0.2    0.2    0.2    0.2    0.2    
0.15    0.15    0.15    0.15    0.15    
0.15    0.15    0.15    0.1    0.1    
0.1    0.1    0.1    0.1    0.1    
0.1    0.05    0.05    0.05    0.05    
0.05    0.05    0.05    0.05    0.0    
0.0    0.0    0.0    0.0    0.0    
0.0    0.0    -0.05    -0.05    -0.05    
-0.05    -0.05    0.2    0.2    0.25    
0.25    0.2    0.25    0.2    0.2    
0.2    0.2    0.2    0.15    0.15    
0.15    0.15    0.15    0.15    0.15    
0.15    0.1    0.1    0.15    0.15    
0.1    0.1    0.1    0.1    0.1    
0.1    0.1    0.1    0.05    0.05    
0.05    0.05    0.05    0.05    0.05    
0.05    0.0    0.0    0.0    0.0    
0.0    0.0    0.0    0.0    -0.05    
-0.05    -0.05    -0.05    -0.05    0.25    
0.25    0.3    0.3    0.25    0.25    
0.25    0.3    0.3    0.25    0.3    
0.25    0.3    0.2    0.2    0.2    
0.2    0.25    0.2    0.2    0.2    
0.2    0.15    0.15    0.15    0.15    
0.15    0.15    0.15    0.15    0.15    
0.15    0.1    0.1    0.1    0.1    
0.1    0.1    0.1    0.1    0.1    
0.1    0.05    0.05    0.05    0.05    
0.05    0.05    0.05    0.05    0.0    
0.0    0.0    0.0    0.0    0.0    
0.0    -0.05    -0.05    -0.05    -0.05    
0.3    0.3    0.3    0.3    0.3    
0.3    0.25    0.25    0.25    0.25    
0.3    0.3    0.25    0.25    0.25    
0.25    0.2    0.2    0.25    0.25    
0.2    0.2    0.2    0.2    0.2    
0.2    0.2    0.2    0.15    0.15    
0.15    0.15    0.15    0.15    0.15    
0.15    0.15    0.15    0.1    0.1    
0.1    0.1    0.1    0.1    0.1    
0.1    0.1    0.1    0.05    0.05    
0.05    0.05    0.05    0.05    0.05    
0.05    0.05    0.0    0.0    0.0    
0.0    0.0    0.0    0.0    -0.05    
-0.05    -0.05    -0.05    0.3    0.3    
0.3    0.3    0.3    0.3    0.25    
0.25    0.25    0.25    0.25    0.25    
0.25    0.25    0.25    0.25    0.2    
0.2    0.2    0.2    0.2    0.2    
0.2    0.2    0.2    0.2    0.15    
0.15    0.15    0.15    0.15    0.15    
0.15    0.15    0.15    0.15    0.1    
0.1    0.1    0.1    0.1    0.1    
0.1    0.1    0.1    0.05    0.05    
0.05    0.05    0.05    0.05    0.05    
0.05    0.05    0.0    0.0    0.0    
0.0    0.0    0.0    0.3    0.3    
0.3    0.3    0.3    0.3    0.25    
0.25    0.25    0.25    0.25    0.25    
0.25    0.25    0.25    0.25    0.2    
0.2    0.2    0.2    0.2    0.2    
0.2    0.2    0.2    0.2    0.15    
0.15    0.15    0.15    0.15    0.15    
0.15    0.15    0.15    0.15    0.1    
0.1    0.1    0.1    0.1    0.1    
0.1    0.1    0.1    0.05    0.05    
0.05    0.05    0.05    0.05    0.3    
0.3    0.3    0.3    0.3    0.3    
0.25    0.25    0.25    0.25    0.25    
0.25    0.25    0.25    0.25    0.2    
0.2    0.2    0.2    0.2    0.2    
0.2    0.2    0.2    0.15    0.15    
0.15    0.15    0.15    0.15    0.15    
0.15    0.1    0.1    0.3    0.3    
0.3    0.3    0.25    0.25    0.25    
0.25    0.2    0.2    0.2    0.2    
0.15    0.15    0.1    0.1    
132.908916426    178.168024841    176.255192061    131.327616678    200.442839004    
202.757881573    248.860994428    276.944656352    269.943679014    276.944656358    
215.429811534    241.266623583    248.860994418    207.603877573    215.429811579    
168.774985865    176.255192113    81.2680032222    124.97853527    131.327616722    
27.5416716675    76.940088184    81.2680032493    25.9944011689    27.5416716773    
265.467073778    269.943679034    236.482519261    241.266623636    202.757881631    
207.603877643    164.22969585    168.774985948    121.194110192    124.978535328    
74.4042350095    76.9400882234    25.0979744569    25.9944011822    263.287357259    
265.467073762    234.173808559    236.482519326    202.757881723    162.081784346    
164.229695921    119.424906843    121.194110236    73.2296227744    74.4042350414    
24.6851143313    25.0979744707    263.287357255    263.287357201    234.173808636    
200.442839056    162.081784391    119.424906863    73.2296227947    24.6851143393    
263.28735718    278.861328651    250.899757278    217.482998508    178.168024972    
132.90891653    82.3207716889    27.91227254    271.993067287    243.442047951    
209.790085501    170.807628848    126.655875592    78.0552663717    26.3866727405    
267.603643353    238.747209075    205.030476805    166.339717396    122.933178088    
75.5593795258    25.5040962766    234.173808567    236.482519277    200.442838974    
202.757881687    162.081784311    164.229695891    121.194110201    74.4042350204    
25.0979744633    236.482519218    202.757881592    164.229695795    261.616371267    
288.525153172    292.103227648    265.469865423    282.805184364    255.134802951    
221.794050108    182.231016376    136.306362516    84.6049644141    28.7212768774    
295.901619986    315.730694392    319.030223397    299.68446109    276.206084848    
247.955544966    214.3734833    175.117083683    130.251728392    80.4688104594    
27.2406728125    271.993067173    243.442047869    209.790085458    170.807628821    
126.655875569    78.0552663563    26.3866727349    241.266623503    207.603877548    
168.774985878    124.978535268    76.940088186    25.9944011692    241.26662346    
207.603877446    168.77498577    304.461730145    102.011919052    160.37217666    
145.793658958    165.071214042    35.2450744709    91.2766837285    105.250597776    
31.1607553993    36.4107580995    297.727064086    232.75090308    271.626869436    
193.041868998    239.157677496    199.225614187    151.090014152    94.9135975215    
32.4667379238    288.992052756    261.884415655    228.791096469    188.958708003    
142.047890425    88.535881211    30.1302729732    305.533609492    282.805184338    
255.134802928    221.794050089    182.231016366    136.306362503    84.6049644033    
28.7212768739    278.861328517    250.899757152    217.482998437    178.168024926    
132.908916487    82.3207716609    27.9122725304    215.429811394    176.255191971    
131.327616622    81.2680031885    27.5416716589    214.390059927    253.859540369    
262.288474797    222.830379964    172.585801752    110.601467887    38.3836620688    
318.586625703    335.222082289    328.787901985    341.044133506    311.003404114    
325.471145883    305.687838834    280.544587889    248.692041497    208.715356595    
159.488109787    100.861670346    34.6517814758    335.222082126    318.586625605    
297.72706405    271.626869428    239.157677496    199.225614184    151.090014147    
94.9135975174    32.4667379233    302.000153394    313.630368709    292.103227572    
265.469865386    232.750903057    193.041868981    145.793658928    91.276683709    
31.1607553923    310.433239202    288.525153025    261.616371156    228.816261645    
189.322397466    274.38993818    235.495102212    184.435940641    119.482183568    
41.8067834033    334.460825885    316.328585573    292.816954106    262.288474792    
222.830379953    172.585801746    110.601467885    38.3836620687    309.365770158    
284.977606147    253.859540344    214.390059901    165.07121402    105.250597759    
36.4107580945    35.2450744618    203.233377303    134.7237208    48.1989880601    
193.087698193    127.044891814    45.2148436196    43.52923446    42.5470731746    

0.375    0.325    0.325    0.375    0.275    
0.275    0.225    0.175    0.175    0.175    
0.275    0.225    0.225    0.275    0.275    
0.325    0.325    0.425    0.375    0.375    
0.475    0.425    0.425    0.475    0.475    
0.175    0.175    0.225    0.225    0.275    
0.275    0.325    0.325    0.375    0.375    
0.425    0.425    0.475    0.475    0.175    
0.175    0.225    0.225    0.275    0.325    
0.325    0.375    0.375    0.425    0.425    
0.475    0.475    0.175    0.175    0.225    
0.275    0.325    0.375    0.425    0.475    
0.175    0.175    0.225    0.275    0.325    
0.375    0.425    0.475    0.175    0.225    
0.275    0.325    0.375    0.425    0.475    
0.175    0.225    0.275    0.325    0.375    
0.425    0.475    0.225    0.225    0.275    
0.275    0.325    0.325    0.375    0.425    
0.475    0.225    0.275    0.325    0.225    
0.175    0.175    0.225    0.175    0.225    
0.275    0.325    0.375    0.425    0.475    
0.125    0.075    0.075    0.125    0.175    
0.225    0.275    0.325    0.375    0.425    
0.475    0.175    0.225    0.275    0.325    
0.375    0.425    0.475    0.225    0.275    
0.325    0.375    0.425    0.475    0.225    
0.275    0.325    0.175    0.425    0.375    
0.375    0.375    0.475    0.425    0.425    
0.475    0.475    0.175    0.275    0.225    
0.325    0.275    0.325    0.375    0.425    
0.475    0.175    0.225    0.275    0.325    
0.375    0.425    0.475    0.125    0.175    
0.225    0.275    0.325    0.375    0.425    
0.475    0.175    0.225    0.275    0.325    
0.375    0.425    0.475    0.275    0.325    
0.375    0.425    0.475    0.325    0.275    
0.275    0.325    0.375    0.425    0.475    
0.125    0.075    0.075    0.075    0.125    
0.125    0.175    0.225    0.275    0.325    
0.375    0.425    0.475    0.075    0.125    
0.175    0.225    0.275    0.325    0.375    
0.425    0.475    0.125    0.125    0.175    
0.225    0.275    0.325    0.375    0.425    
0.475    0.125    0.175    0.225    0.275    
0.325    0.275    0.325    0.375    0.425    
0.475    0.125    0.175    0.225    0.275    
0.325    0.375    0.425    0.475    0.175    
0.225    0.275    0.325    0.375    0.425    
0.475    0.475    0.375    0.425    0.475    
0.375    0.425    0.475    0.475    0.475    

11     21     2     3     13     22     5     6     
3     2     21     11     4     1     20     12     
20     21     11     12     64     65     57     56     
21     22     13     11     65     66     58     57     
45     46     38     37     87     88     80     79     
37     38     46     45     10     9     8     7     
53     62     15     16     55     63     18     19     
16     15     62     53     17     14     61     54     
62     61     14     15     70     69     27     28     
61     62     53     54     109     110     98     99     
55     63     18     19     56     64     20     12     
63     62     15     18     71     70     28     29     
62     63     55     53     110     111     102     98     
64     63     18     20     72     71     29     30     
63     64     56     55     111     112     104     102     
65     64     20     21     73     72     30     31     
64     65     57     56     112     113     105     104     
58     66     22     13     59     67     23     24     
66     65     21     22     74     73     31     32     
65     66     58     57     113     114     106     105     
59     67     23     24     60     68     25     26     
67     66     22     23     75     74     32     33     
66     67     59     58     114     115     107     106     
68     67     23     25     76     75     33     34     
67     68     60     59     115     116     108     107     
70     69     27     28     78     77     35     36     
69     70     62     61     121     122     110     109     
71     70     28     29     79     78     36     37     
70     71     63     62     122     123     111     110     
72     71     29     30     80     79     37     38     
71     72     64     63     123     124     112     111     
73     72     30     31     81     80     38     39     
72     73     65     64     124     125     113     112     
74     73     31     32     82     81     39     40     
73     74     66     65     125     126     114     113     
75     74     32     33     83     82     40     41     
74     75     67     66     126     127     115     114     
76     75     33     34     84     83     41     42     
75     76     68     67     127     128     116     115     
78     77     35     36     86     85     43     44     
77     78     70     69     129     130     122     121     
79     78     36     37     87     86     44     45     
78     79     71     70     130     131     123     122     
79     80     72     71     131     132     124     123     
81     80     38     39     89     88     46     47     
80     81     73     72     132     133     125     124     
82     81     39     40     90     89     47     48     
81     82     74     73     133     134     126     125     
83     82     40     41     91     90     48     49     
82     83     75     74     134     135     127     126     
84     83     41     42     92     91     49     50     
83     84     76     75     135     136     128     127     
86     85     43     44     94     93     51     52     
85     86     78     77     137     138     130     129     
86     87     79     78     138     139     131     130     
87     88     80     79     139     140     132     131     
88     89     81     80     140     141     133     132     
89     90     82     81     141     142     134     133     
90     91     83     82     142     143     135     134     
91     92     84     83     143     144     136     135     
93     94     86     85     145     146     138     137     
109     110     98     99     174     175     164     163     
110     111     102     98     175     176     165     164     
111     112     104     102     176     177     166     165     
112     113     105     104     177     178     168     166     
113     114     106     105     178     179     169     168     
114     115     107     106     179     180     170     169     
115     116     108     107     180     181     171     170     
121     122     110     109     184     185     175     174     
122     123     111     110     185     186     176     175     
123     124     112     111     186     187     177     176     
124     125     113     112     187     188     178     177     
125     126     114     113     188     189     179     178     
126     127     115     114     189     190     180     179     
127     128     116     115     190     191     181     180     
129     130     122     121     192     193     185     184     
130     131     123     122     193     194     186     185     
131     132     124     123     194     195     187     186     
132     133     125     124     195     196     188     187     
133     134     126     125     196     197     189     188     
134     135     127     126     197     198     190     189     
135     136     128     127     198     199     191     190     
139     138     86     87     147     146     94     95     
138     139     131     130     200     201     194     193     
140     139     87     88     148     147     95     96     
139     140     132     131     201     202     195     194     
141     140     88     89     149     148     96     97     
140     141     133     132     202     203     196     195     
141     142     134     133     203     204     197     196     
142     143     135     134     204     205     198     197     
143     144     136     135     205     206     199     198     
146     147     139     138     207     208     201     200     
147     148     140     139     208     209     202     201     
148     149     141     140     209     210     203     202     
150     164     98     100     154     165     102     103     
100     98     164     150     101     99     163     151     
163     164     150     151     231     232     218     217     
164     165     154     150     232     233     219     218     
174     175     164     163     241     242     232     231     
175     176     165     164     242     243     233     232     
176     177     166     165     243     244     234     233     
177     178     168     166     244     245     235     234     
178     179     169     168     245     246     236     235     
179     180     170     169     246     247     237     236     
180     181     171     170     247     248     238     237     
172     183     118     119     174     184     121     109     
119     118     183     172     120     117     182     173     
182     183     172     173     249     250     239     240     
183     184     174     172     250     251     241     239     
184     185     175     174     251     252     242     241     
185     186     176     175     252     253     243     242     
186     187     177     176     253     254     244     243     
187     188     178     177     254     255     245     244     
188     189     179     178     255     256     246     245     
189     190     180     179     256     257     247     246     
190     191     181     180     257     258     248     247     
192     193     185     184     259     261     252     251     
193     194     186     185     261     262     253     252     
194     195     187     186     262     263     254     253     
195     196     188     187     263     264     255     254     
196     197     189     188     264     265     256     255     
197     198     190     189     265     266     257     256     
198     199     191     190     266     267     258     257     
200     201     194     193     268     269     262     261     
201     202     195     194     269     270     263     262     
202     203     196     195     270     271     264     263     
203     204     197     196     271     272     265     264     
204     205     198     197     272     273     266     265     
205     206     199     198     273     274     267     266     
207     208     201     200     275     276     269     268     
208     209     202     201     276     277     270     269     
209     210     203     202     277     278     271     270     
150     151     217     218     152     153     212     211     
213     224     156     157     215     225     159     160     
157     156     224     213     158     155     223     214     
224     223     155     156     236     235     168     169     
223     224     213     214     291     292     282     281     
215     225     159     160     216     226     161     162     
225     224     156     159     237     236     169     170     
224     225     215     213     292     293     283     282     
226     225     159     161     238     237     170     171     
225     226     216     215     293     294     284     283     
231     232     218     217     297     298     288     287     
219     233     165     154     220     234     166     167     
232     233     219     218     298     299     289     288     
220     234     166     167     223     235     168     155     
233     234     220     219     299     300     290     289     
234     235     223     220     300     301     291     290     
235     236     224     223     301     302     292     291     
236     237     225     224     302     303     293     292     
237     238     226     225     303     304     294     293     
241     242     232     231     307     308     298     297     
242     243     233     232     308     309     299     298     
243     244     234     233     309     310     300     299     
244     245     235     234     310     311     301     300     
245     246     236     235     311     312     302     301     
246     247     237     236     312     313     303     302     
247     248     238     237     313     314     304     303     
250     251     241     239     315     316     307     306     
251     252     242     241     316     317     308     307     
252     253     243     242     317     318     309     308     
253     254     244     243     318     319     310     309     
254     255     245     244     319     320     311     310     
255     256     246     245     320     321     312     311     
256     257     247     246     321     322     313     312     
257     258     248     247     322     323     314     313     
259     261     252     251     325     326     317     316     
261     262     253     252     326     327     318     317     
262     263     254     253     327     328     319     318     
263     264     255     254     328     329     320     319     
264     265     256     255     329     330     321     320     
265     266     257     256     330     331     322     321     
266     267     258     257     331     332     323     322     
269     270     263     262     333     334     328     327     
270     271     264     263     334     335     329     328     
271     272     265     264     335     336     330     329     
272     273     266     265     336     337     331     330     
273     274     267     266     337     338     332     331     
279     290     220     221     281     291     223     214     
221     220     290     279     222     219     289     280     
289     290     279     280     349     350     339     340     
290     291     281     279     350     351     341     339     
291     292     282     281     351     352     342     341     
292     293     283     282     352     353     343     342     
293     294     284     283     353     354     344     343     
285     296     228     229     287     297     231     217     
229     228     296     285     230     227     295     286     
296     295     227     228     306     305     240     239     
295     296     285     286     355     356     345     346     
297     296     228     231     307     306     239     241     
296     297     287     285     356     357     347     345     
297     298     288     287     357     358     348     347     
298     299     289     288     358     359     349     348     
299     300     290     289     359     360     350     349     
300     301     291     290     360     361     351     350     
301     302     292     291     361     362     352     351     
302     303     293     292     362     363     353     352     
303     304     294     293     363     364     354     353     