Title = " tecplot file for 2D Cavity problem " 
variables = "x", "y", "z", "velX", "cellCentroidY" 
Zone T = "nmesh0" N = 428 E = 250 DATAPACKING = BLOCK, VARLOCATION = ([4-5]=CELLCENTERED),  ZONETYPE=FEBRICK 
-0.1    -0.1    -0.1    -0.1    -0.1    
-0.1    -0.1    -0.1    -0.1    -0.1    
-0.1    -0.1    -0.1    -0.1    -0.1    
-0.1    -0.1    -0.1    -0.1    -0.1    
-0.1    -0.1    -0.1    -0.1    -0.1    
-0.1    -0.1    -0.15    -0.15    -0.15    
-0.15    -0.15    -0.15    -0.15    -0.15    
-0.15    -0.15    -0.15    -0.15    -0.15    
-0.15    -0.15    -0.15    -0.15    -0.15    
-0.15    -0.15    -0.15    -0.15    -0.15    
-0.15    -0.15    -0.15    -0.15    -0.15    
-0.2    -0.2    -0.2    -0.2    -0.2    
-0.2    -0.2    -0.2    -0.2    -0.2    
-0.2    -0.2    -0.2    -0.2    -0.2    
-0.2    -0.2    -0.2    -0.2    -0.2    
-0.2    -0.2    -0.2    -0.2    -0.2    
-0.2    -0.2    -0.2    -0.2    -0.2    
-0.25    -0.25    -0.25    -0.25    -0.25    
-0.25    -0.25    -0.25    -0.25    -0.25    
-0.25    -0.25    -0.25    -0.25    -0.25    
-0.25    -0.25    -0.25    -0.25    -0.25    
-0.25    -0.25    -0.25    -0.25    -0.25    
-0.25    -0.25    -0.25    -0.25    -0.25    
-0.25    -0.25    -0.25    -0.25    -0.3    
-0.3    -0.3    -0.3    -0.3    -0.3    
-0.3    -0.3    -0.3    -0.3    -0.3    
-0.3    -0.3    -0.3    -0.3    -0.3    
-0.3    -0.3    -0.3    -0.3    -0.3    
-0.3    -0.3    -0.3    -0.3    -0.3    
-0.3    -0.3    -0.3    -0.3    -0.3    
-0.3    -0.3    -0.3    -0.3    -0.3    
-0.3    -0.3    -0.3    -0.3    -0.3    
-0.3    -0.3    -0.3    -0.3    -0.3    
-0.3    -0.3    -0.3    -0.3    -0.3    
-0.3    -0.35    -0.35    -0.35    -0.35    
-0.35    -0.35    -0.35    -0.35    -0.35    
-0.35    -0.35    -0.35    -0.35    -0.35    
-0.35    -0.35    -0.35    -0.35    -0.35    
-0.35    -0.35    -0.35    -0.35    -0.35    
-0.35    -0.35    -0.35    -0.35    -0.35    
-0.35    -0.35    -0.35    -0.35    -0.35    
-0.35    -0.35    -0.35    -0.35    -0.35    
-0.35    -0.35    -0.35    -0.35    -0.35    
-0.35    -0.35    -0.35    -0.35    -0.35    
-0.35    -0.35    -0.35    -0.35    -0.35    
-0.35    -0.35    -0.35    -0.35    -0.35    
-0.35    -0.35    -0.35    -0.4    -0.4    
-0.4    -0.4    -0.4    -0.4    -0.4    
-0.4    -0.4    -0.4    -0.4    -0.4    
-0.4    -0.4    -0.4    -0.4    -0.4    
-0.4    -0.4    -0.4    -0.4    -0.4    
-0.4    -0.4    -0.4    -0.4    -0.4    
-0.4    -0.4    -0.4    -0.4    -0.4    
-0.4    -0.4    -0.4    -0.4    -0.4    
-0.4    -0.4    -0.4    -0.4    -0.4    
-0.4    -0.4    -0.4    -0.4    -0.4    
-0.4    -0.4    -0.4    -0.4    -0.4    
-0.4    -0.4    -0.4    -0.4    -0.4    
-0.4    -0.4    -0.4    -0.4    -0.4    
-0.4    -0.45    -0.45    -0.45    -0.45    
-0.45    -0.45    -0.45    -0.45    -0.45    
-0.45    -0.45    -0.45    -0.45    -0.45    
-0.45    -0.45    -0.45    -0.45    -0.45    
-0.45    -0.45    -0.45    -0.45    -0.45    
-0.45    -0.45    -0.45    -0.45    -0.45    
-0.45    -0.45    -0.45    -0.45    -0.45    
-0.45    -0.45    -0.45    -0.45    -0.45    
-0.45    -0.45    -0.45    -0.45    -0.45    
-0.45    -0.45    -0.45    -0.45    -0.45    
-0.45    -0.45    -0.45    -0.45    -0.45    
-0.45    -0.45    -0.45    -0.45    -0.45    
-0.45    -0.45    -0.45    -0.45    -0.45    
-0.45    -0.45    -0.5    -0.5    -0.5    
-0.5    -0.5    -0.5    -0.5    -0.5    
-0.5    -0.5    -0.5    -0.5    -0.5    
-0.5    -0.5    -0.5    -0.5    -0.5    
-0.5    -0.5    -0.5    -0.5    -0.5    
-0.5    -0.5    -0.5    -0.5    -0.5    
-0.5    -0.5    -0.5    -0.5    -0.5    
-0.5    -0.5    -0.5    -0.5    -0.5    
-0.5    -0.5    -0.5    -0.5    -0.5    
-0.5    -0.5    -0.5    -0.5    -0.5    
-0.5    -0.5    -0.5    -0.5    -0.5    
-0.5    -0.5    -0.5    -0.5    -0.5    
-0.5    -0.5    -0.5    -0.5    -0.5    
-0.5    -0.5    -0.5    
0.25    0.3    0.3    0.25    0.35    
0.35    0.4    0.4    0.45    0.45    
0.5    0.5    0.25    0.3    0.35    
0.4    0.45    0.5    0.3    0.35    
0.4    0.45    0.5    0.35    0.4    
0.45    0.5    0.25    0.25    0.3    
0.3    0.35    0.35    0.4    0.4    
0.45    0.45    0.5    0.5    0.25    
0.3    0.35    0.4    0.45    0.5    
0.3    0.35    0.4    0.45    0.5    
0.35    0.3    0.4    0.45    0.5    
0.25    0.25    0.3    0.3    0.35    
0.35    0.4    0.4    0.45    0.45    
0.5    0.5    0.25    0.3    0.35    
0.4    0.45    0.5    0.3    0.35    
0.4    0.45    0.5    0.3    0.25    
0.25    0.35    0.4    0.45    0.5    
0.2    0.25    0.25    0.2    0.3    
0.3    0.35    0.35    0.4    0.4    
0.45    0.45    0.5    0.5    0.2    
0.25    0.3    0.35    0.4    0.45    
0.5    0.2    0.25    0.3    0.35    
0.4    0.45    0.5    0.25    0.3    
0.35    0.4    0.45    0.5    0.2    
0.2    0.25    0.25    0.3    0.3    
0.35    0.35    0.4    0.4    0.45    
0.45    0.5    0.5    0.2    0.15    
0.15    0.25    0.3    0.35    0.4    
0.45    0.5    0.2    0.15    0.25    
0.3    0.35    0.4    0.45    0.5    
0.15    0.2    0.25    0.3    0.35    
0.4    0.45    0.5    0.15    0.2    
0.25    0.3    0.35    0.3    0.35    
0.3    0.35    0.4    0.4    0.45    
0.45    0.1    0.15    0.15    0.1    
0.2    0.2    0.25    0.25    0.3    
0.3    0.35    0.35    0.4    0.4    
0.45    0.45    0.5    0.5    0.15    
0.2    0.25    0.3    0.35    0.4    
0.45    0.5    0.15    0.2    0.25    
0.3    0.35    0.4    0.45    0.5    
0.15    0.2    0.25    0.3    0.35    
0.4    0.45    0.5    0.15    0.2    
0.25    0.3    0.35    0.4    0.45    
0.5    0.3    0.35    0.4    0.45    
0.5    0.3    0.35    0.4    0.45    
0.5    0.45    0.5    0.1    0.1    
0.15    0.15    0.2    0.2    0.25    
0.25    0.3    0.3    0.35    0.35    
0.4    0.4    0.45    0.45    0.5    
0.5    0.15    0.1    0.2    0.25    
0.3    0.35    0.4    0.45    0.5    
0.15    0.2    0.25    0.3    0.35    
0.4    0.45    0.5    0.15    0.2    
0.25    0.3    0.35    0.4    0.45    
0.5    0.15    0.2    0.25    0.3    
0.35    0.4    0.45    0.5    0.3    
0.35    0.4    0.45    0.5    0.3    
0.35    0.4    0.45    0.5    0.45    
0.5    0.1    0.1    0.15    0.15    
0.2    0.2    0.25    0.25    0.3    
0.3    0.35    0.35    0.4    0.4    
0.45    0.45    0.5    0.5    0.1    
0.15    0.2    0.25    0.3    0.35    
0.4    0.45    0.5    0.15    0.2    
0.25    0.3    0.35    0.4    0.45    
0.5    0.15    0.2    0.25    0.3    
0.35    0.4    0.45    0.5    0.15    
0.2    0.25    0.3    0.35    0.4    
0.45    0.5    0.15    0.2    0.25    
0.3    0.35    0.4    0.45    0.5    
0.3    0.35    0.4    0.45    0.5    
0.45    0.5    0.1    0.1    0.15    
0.15    0.2    0.2    0.25    0.25    
0.3    0.3    0.35    0.35    0.4    
0.4    0.45    0.45    0.5    0.1    
0.15    0.2    0.25    0.3    0.35    
0.4    0.45    0.5    0.15    0.2    
0.25    0.3    0.35    0.4    0.45    
0.5    0.15    0.2    0.25    0.3    
0.35    0.4    0.45    0.5    0.15    
0.2    0.25    0.3    0.35    0.4    
0.45    0.5    0.15    0.2    0.25    
0.3    0.35    0.4    0.45    0.5    
0.3    0.35    0.4    0.45    0.5    
0.45    0.5    0.5    
0.45    0.45    0.5    0.5    0.45    
0.5    0.45    0.5    0.45    0.5    
0.45    0.5    0.4    0.4    0.4    
0.4    0.4    0.4    0.35    0.35    
0.35    0.35    0.35    0.3    0.3    
0.3    0.3    0.5    0.45    0.5    
0.45    0.5    0.45    0.5    0.45    
0.5    0.45    0.45    0.5    0.4    
0.4    0.4    0.4    0.4    0.4    
0.35    0.35    0.35    0.35    0.35    
0.3    0.3    0.3    0.3    0.3    
0.5    0.45    0.5    0.45    0.5    
0.45    0.5    0.45    0.5    0.45    
0.45    0.5    0.4    0.4    0.4    
0.4    0.4    0.4    0.35    0.35    
0.35    0.35    0.35    0.3    0.3    
0.35    0.3    0.3    0.3    0.3    
0.45    0.45    0.5    0.5    0.5    
0.45    0.5    0.45    0.5    0.45    
0.5    0.45    0.45    0.5    0.4    
0.4    0.4    0.4    0.4    0.4    
0.4    0.35    0.35    0.35    0.35    
0.35    0.35    0.35    0.3    0.3    
0.3    0.3    0.3    0.3    0.5    
0.45    0.5    0.45    0.5    0.45    
0.5    0.45    0.5    0.45    0.5    
0.45    0.45    0.5    0.4    0.4    
0.45    0.4    0.4    0.4    0.4    
0.4    0.4    0.35    0.35    0.35    
0.35    0.35    0.35    0.35    0.35    
0.3    0.3    0.3    0.3    0.3    
0.3    0.3    0.3    0.25    0.25    
0.25    0.25    0.25    0.2    0.2    
0.15    0.15    0.15    0.2    0.15    
0.2    0.45    0.45    0.5    0.5    
0.5    0.45    0.5    0.45    0.5    
0.45    0.5    0.45    0.5    0.45    
0.5    0.45    0.45    0.5    0.4    
0.4    0.4    0.4    0.4    0.4    
0.4    0.4    0.35    0.35    0.35    
0.35    0.35    0.35    0.35    0.35    
0.3    0.3    0.3    0.3    0.3    
0.3    0.3    0.3    0.25    0.25    
0.25    0.25    0.25    0.25    0.25    
0.25    0.2    0.2    0.2    0.2    
0.2    0.15    0.15    0.15    0.15    
0.15    0.1    0.1    0.5    0.45    
0.5    0.45    0.5    0.45    0.5    
0.45    0.5    0.45    0.5    0.45    
0.5    0.45    0.5    0.45    0.45    
0.5    0.4    0.4    0.4    0.4    
0.4    0.4    0.4    0.4    0.4    
0.35    0.35    0.35    0.35    0.35    
0.35    0.35    0.35    0.3    0.3    
0.3    0.3    0.3    0.3    0.3    
0.3    0.25    0.25    0.25    0.25    
0.25    0.25    0.25    0.25    0.2    
0.2    0.2    0.2    0.2    0.15    
0.15    0.15    0.15    0.15    0.1    
0.1    0.5    0.45    0.5    0.45    
0.5    0.45    0.5    0.45    0.5    
0.45    0.5    0.45    0.5    0.45    
0.5    0.45    0.45    0.5    0.4    
0.4    0.4    0.4    0.4    0.4    
0.4    0.4    0.4    0.35    0.35    
0.35    0.35    0.35    0.35    0.35    
0.35    0.3    0.3    0.3    0.3    
0.3    0.3    0.3    0.3    0.25    
0.25    0.25    0.25    0.25    0.25    
0.25    0.25    0.2    0.2    0.2    
0.2    0.2    0.2    0.2    0.2    
0.15    0.15    0.15    0.15    0.15    
0.1    0.1    0.5    0.45    0.5    
0.45    0.5    0.45    0.5    0.45    
0.5    0.45    0.5    0.45    0.5    
0.45    0.5    0.45    0.45    0.4    
0.4    0.4    0.4    0.4    0.4    
0.4    0.4    0.4    0.35    0.35    
0.35    0.35    0.35    0.35    0.35    
0.35    0.3    0.3    0.3    0.3    
0.3    0.3    0.3    0.3    0.25    
0.25    0.25    0.25    0.25    0.25    
0.25    0.25    0.2    0.2    0.2    
0.2    0.2    0.2    0.2    0.2    
0.15    0.15    0.15    0.15    0.15    
0.1    0.1    0.5    
367.323248485    376.859905725    333.786293428    377.60235433    350.053678141    
309.401447716    368.05474557    311.543747272    271.127776656    350.693457681    
200.768432781    206.698724831    311.991480097    92.9932345054    200.931344768    
335.971162579    264.48735275    311.549104544    217.559675219    273.001365931    
150.555368135    208.006557298    57.2858790524    93.4681145157    267.923932315    
182.80717403    220.545100745    119.77342523    152.63099716    42.5470731834    
58.0373363068    186.738634033    122.494630078    43.5292344682    369.215053952    
351.752934029    312.765253661    201.222730748    314.941973192    276.086198671    
210.248661259    94.3083287337    236.425987125    273.316860156    225.415999837    
156.146990402    59.3471289519    243.507484586    193.087698217    127.044891831    
45.2148436244    371.020983639    353.51057424    314.140969495    201.776918818    
320.190450429    281.156257792    214.178638792    95.8716656626    281.579663969    
233.313150836    162.194263374    61.7224035973    281.141994807    291.30376013    
254.241987308    203.233377311    134.723720807    48.1989880625    380.403324116    
386.082471046    359.68236665    388.067507174    344.17095983    382.814113063    
373.82748274    356.502874727    316.75540095    202.979984639    336.769756462    
365.488598744    314.277672105    351.177774297    328.272864158    289.658533786    
221.460015173    99.1153696984    346.003692191    325.309785261    294.137862993    
246.29934274    173.08067581    66.4447791307    305.637747665    270.332535722    
219.597766083    148.188620718    53.9251650134    390.69048623    386.22270312    
378.18154359    361.768131369    322.203962621    206.192187644    374.872549611    
360.116585315    380.776360928    373.127702564    361.010324735    340.645080709    
304.259848131    235.971472006    107.051143283    347.689583457    369.536655486    
330.266859517    358.070567887    340.623962333    313.032986112    268.008066929    
193.897033726    77.2698397937    337.696478626    360.116585315    318.133220827    
346.003692195    291.303760127    325.309785268    254.241987304    294.137862994    
246.299342738    173.080675808    66.4447791295    352.578831493    336.769756453    
314.277672113    243.507484566    281.579663965    236.425987102    273.316860144    
186.738633999    267.923932298    122.494630053    220.545100718    152.630997138    
393.411343723    395.183887725    396.987319168    395.831790041    394.004147028    
390.862454225    384.807407192    371.228690513    334.740546378    217.302410608    
387.850836637    382.729876868    374.264725386    359.112917529    329.507803986    
266.956829099    130.80913384    380.776360932    373.127702568    361.010324738    
340.645080711    304.259848132    235.971472007    107.051143284    374.872549622    
365.488598751    351.177774304    328.272864162    233.313150826    289.658533787    
162.194263365    221.460015174    61.7224035935    99.1153696983    370.168329173    
359.682366647    344.170959834    320.190450429    225.415999814    281.156257789    
156.146990383    214.178638788    59.3471289456    95.8716656615    314.941973188    
276.086198663    210.248661252    58.037336298    94.3083287307    311.54910454    
273.001365918    208.006557286    57.2858790444    93.4681145113    92.9932345006    
391.158841022    398.973067917    398.568883728    397.914421829    396.738196846    
394.266244487    387.776944664    365.491931803    266.677417002    396.987319168    
395.83179004    394.004147028    390.862454225    384.807407192    371.228690513    
334.740546378    217.302410608    393.411343727    390.690486232    386.222703122    
378.181543591    361.768131369    322.203962622    206.192187644    391.396881158    
388.067507179    382.814113066    373.827482741    356.502874728    316.755400951    
202.979984639    389.795814538    386.082471044    380.403324116    371.02098364    
353.51057424    314.140969494    201.776918818    369.21505395    351.752934027    
312.765253659    201.222730747    368.054745566    350.693457676    311.991480093    
200.931344767    200.768432779    388.570771713    384.628284835    378.734741233    

0.325    0.275    0.275    0.275    0.375    
0.325    0.325    0.425    0.375    0.375    
0.475    0.425    0.425    0.475    0.475    
0.275    0.325    0.325    0.375    0.375    
0.425    0.425    0.475    0.475    0.325    
0.375    0.375    0.425    0.425    0.475    
0.475    0.375    0.425    0.475    0.325    
0.375    0.425    0.475    0.325    0.375    
0.425    0.475    0.325    0.325    0.375    
0.425    0.475    0.325    0.375    0.425    
0.475    0.325    0.375    0.425    0.475    
0.325    0.375    0.425    0.475    0.325    
0.375    0.425    0.475    0.275    0.275    
0.325    0.375    0.425    0.475    0.275    
0.225    0.225    0.225    0.275    0.275    
0.325    0.375    0.425    0.475    0.225    
0.225    0.275    0.275    0.325    0.375    
0.425    0.475    0.225    0.275    0.325    
0.375    0.425    0.475    0.275    0.325    
0.375    0.425    0.475    0.225    0.275    
0.325    0.375    0.425    0.475    0.175    
0.175    0.175    0.225    0.275    0.325    
0.375    0.425    0.475    0.175    0.175    
0.225    0.225    0.275    0.325    0.375    
0.425    0.475    0.175    0.175    0.225    
0.225    0.275    0.275    0.325    0.325    
0.375    0.425    0.475    0.175    0.225    
0.275    0.325    0.325    0.325    0.325    
0.375    0.325    0.425    0.375    0.425    
0.175    0.125    0.125    0.175    0.225    
0.275    0.325    0.375    0.425    0.475    
0.175    0.225    0.275    0.325    0.375    
0.425    0.475    0.175    0.225    0.275    
0.325    0.375    0.425    0.475    0.175    
0.225    0.275    0.325    0.375    0.375    
0.425    0.425    0.475    0.475    0.175    
0.225    0.275    0.325    0.375    0.375    
0.425    0.425    0.475    0.475    0.325    
0.375    0.425    0.475    0.475    0.325    
0.375    0.425    0.475    0.475    0.475    
0.125    0.125    0.175    0.225    0.275    
0.325    0.375    0.425    0.475    0.125    
0.175    0.225    0.275    0.325    0.375    
0.425    0.475    0.175    0.225    0.275    
0.325    0.375    0.425    0.475    0.175    
0.225    0.275    0.325    0.375    0.425    
0.475    0.175    0.225    0.275    0.325    
0.375    0.425    0.475    0.325    0.375    
0.425    0.475    0.325    0.375    0.425    
0.475    0.475    0.175    0.225    0.275    

30     31     2     3     32     33     5     6     
3     2     31     30     4     1     29     28     
31     29     1     2     41     40     13     14     
29     31     30     28     57     59     58     56     
32     33     5     6     34     35     7     8     
33     31     2     5     42     41     14     15     
31     33     32     30     59     61     60     58     
34     35     7     8     36     37     9     10     
35     33     5     7     43     42     15     16     
33     35     34     32     61     63     62     60     
36     37     9     10     39     38     11     12     
37     35     7     9     44     43     16     17     
35     37     36     34     63     65     64     62     
38     37     9     11     45     44     17     18     
37     38     39     36     65     66     67     64     
40     41     31     29     68     69     59     57     
42     41     14     15     47     46     19     20     
41     42     33     31     69     70     61     59     
43     42     15     16     48     47     20     21     
42     43     35     33     70     71     63     61     
44     43     16     17     49     48     21     22     
43     44     37     35     71     72     65     63     
45     44     17     18     50     49     22     23     
44     45     38     37     72     73     66     65     
46     47     42     41     74     75     70     69     
48     47     20     21     53     51     24     25     
47     48     43     42     75     76     71     70     
49     48     21     22     54     53     25     26     
48     49     44     43     76     77     72     71     
50     49     22     23     55     54     26     27     
49     50     45     44     77     78     73     72     
51     53     48     47     82     83     76     75     
53     54     49     48     83     84     77     76     
54     55     50     49     84     85     78     77     
59     61     60     58     91     93     92     90     
61     63     62     60     93     95     94     92     
63     65     64     62     95     97     96     94     
65     66     67     64     97     98     99     96     
69     70     61     59     102     103     93     91     
70     71     63     61     103     104     95     93     
71     72     65     63     104     105     97     95     
72     73     66     65     105     106     98     97     
75     74     46     47     82     79     52     51     
74     75     70     69     109     110     103     102     
75     76     71     70     110     111     104     103     
76     77     72     71     111     112     105     104     
77     78     73     72     112     113     106     105     
79     82     75     74     115     116     110     109     
82     83     76     75     116     117     111     110     
83     84     77     76     117     118     112     111     
84     85     78     77     118     119     113     112     
91     93     92     90     125     127     126     124     
93     95     94     92     127     129     128     126     
95     97     96     94     129     131     130     128     
97     98     99     96     131     132     133     130     
102     103     93     91     138     139     127     125     
103     104     95     93     139     140     129     127     
104     105     97     95     140     141     131     129     
105     106     98     97     141     142     132     131     
109     110     103     102     146     147     139     138     
110     111     104     103     147     148     140     139     
111     112     105     104     148     149     141     140     
112     113     106     105     149     150     142     141     
74     79     115     109     81     80     114     108     
114     115     109     108     153     154     146     145     
115     116     110     109     154     155     147     146     
116     117     111     110     155     156     148     147     
117     118     112     111     156     157     149     148     
118     119     113     112     157     158     150     149     
122     123     87     88     124     125     91     90     
88     87     123     122     89     86     121     120     
123     121     86     87     137     134     100     101     
121     123     122     120     177     179     178     176     
125     123     87     91     138     137     101     102     
123     125     124     122     179     181     180     178     
125     127     126     124     181     183     182     180     
127     129     128     126     183     185     184     182     
129     131     130     128     185     187     186     184     
131     132     133     130     187     188     189     186     
137     134     100     101     145     143     107     108     
134     137     123     121     191     192     179     177     
138     137     101     102     146     145     108     109     
137     138     125     123     192     193     181     179     
138     139     127     125     193     194     183     181     
139     140     129     127     194     195     185     183     
140     141     131     129     195     196     187     185     
141     142     132     131     196     197     188     187     
143     145     137     134     199     200     192     191     
145     146     138     137     200     201     193     192     
146     147     139     138     201     202     194     193     
147     148     140     139     202     203     195     194     
148     149     141     140     203     204     196     195     
149     150     142     141     204     205     197     196     
153     154     146     145     208     209     201     200     
154     155     147     146     209     210     202     201     
155     156     148     147     210     211     203     202     
156     157     149     148     211     212     204     203     
157     158     150     149     212     213     205     204     
177     179     178     176     239     241     240     238     
179     181     180     178     241     243     242     240     
181     183     182     180     243     245     244     242     
183     185     184     182     245     247     246     244     
185     187     186     184     247     249     248     246     
187     188     189     186     249     250     251     248     
121     134     191     177     136     135     190     173     
191     190     135     134     199     198     144     143     
190     191     177     173     252     254     239     237     
191     192     179     177     254     255     241     239     
192     193     181     179     255     256     243     241     
193     194     183     181     256     257     245     243     
194     195     185     183     257     258     247     245     
195     196     187     185     258     259     249     247     
196     197     188     187     259     260     250     249     
199     198     144     143     207     206     151     152     
198     199     191     190     261     262     254     252     
200     199     143     145     208     207     152     153     
199     200     192     191     262     263     255     254     
200     201     193     192     263     264     256     255     
201     202     194     193     264     265     257     256     
202     203     195     194     265     266     258     257     
203     204     196     195     266     267     259     258     
204     205     197     196     267     268     260     259     
207     206     151     152     215     214     159     160     
206     207     199     198     269     270     262     261     
208     207     152     153     216     215     160     161     
207     208     200     199     270     271     263     262     
209     208     153     154     217     216     161     162     
208     209     201     200     271     272     264     263     
210     209     154     155     218     217     162     163     
209     210     202     201     272     273     265     264     
210     211     203     202     273     274     266     265     
211     212     204     203     274     275     267     266     
212     213     205     204     275     276     268     267     
214     215     207     206     277     278     270     269     
215     216     208     207     278     279     271     270     
216     217     209     208     279     280     272     271     
218     217     162     163     223     222     164     165     
217     218     210     209     280     281     273     272     
223     222     164     165     228     227     166     167     
222     223     218     217     285     286     281     280     
223     228     167     165     224     229     168     169     
227     228     223     222     290     291     286     285     
224     229     168     169     225     230     170     171     
228     229     224     223     291     292     287     286     
229     230     225     224     292     293     288     287     
236     237     173     174     238     239     177     176     
174     173     237     236     175     172     235     234     
235     237     236     234     298     300     299     297     
237     239     238     236     300     302     301     299     
239     241     240     238     302     304     303     301     
241     243     242     240     304     306     305     303     
243     245     244     242     306     308     307     305     
245     247     246     244     308     310     309     307     
247     249     248     246     310     312     311     309     
249     250     251     248     312     313     314     311     
252     254     239     237     316     317     302     300     
254     255     241     239     317     318     304     302     
255     256     243     241     318     319     306     304     
256     257     245     243     319     320     308     306     
257     258     247     245     320     321     310     308     
258     259     249     247     321     322     312     310     
259     260     250     249     322     323     313     312     
261     262     254     252     324     325     317     316     
262     263     255     254     325     326     318     317     
263     264     256     255     326     327     319     318     
264     265     257     256     327     328     320     319     
265     266     258     257     328     329     321     320     
266     267     259     258     329     330     322     321     
267     268     260     259     330     331     323     322     
269     270     262     261     332     333     325     324     
270     271     263     262     333     334     326     325     
271     272     264     263     334     335     327     326     
272     273     265     264     335     336     328     327     
274     273     210     211     282     281     218     219     
273     274     266     265     336     337     329     328     
275     274     211     212     283     282     219     220     
274     275     267     266     337     338     330     329     
276     275     212     213     284     283     220     221     
275     276     268     267     338     339     331     330     
277     278     270     269     340     341     333     332     
278     279     271     270     341     342     334     333     
279     280     272     271     342     343     335     334     
280     281     273     272     343     344     336     335     
282     281     218     219     287     286     223     224     
281     282     274     273     344     345     337     336     
283     282     219     220     288     287     224     225     
282     283     275     274     345     346     338     337     
284     283     220     221     289     288     225     226     
283     284     276     275     346     347     339     338     
285     286     281     280     351     352     344     343     
286     287     282     281     352     353     345     344     
287     288     283     282     353     354     346     345     
289     288     225     226     294     293     230     231     
288     289     284     283     354     355     347     346     
290     291     286     285     356     357     352     351     
291     292     287     286     357     358     353     352     
292     293     288     287     358     359     354     353     
294     293     230     231     296     295     232     233     
293     294     289     288     359     360     355     354     
295     296     294     293     361     362     360     359     
300     298     235     237     316     315     253     252     
298     300     299     297     364     366     365     363     
300     302     301     299     366     368     367     365     
302     304     303     301     368     370     369     367     
304     306     305     303     370     372     371     369     