Title = " tecplot file for 2D Cavity problem " 
variables = "x", "y", "z", "velX", "cellCentroidY" 
Zone T = "nmesh0" N = 396 E = 250 DATAPACKING = BLOCK, VARLOCATION = ([4-5]=CELLCENTERED), ZONETYPE=FEBRICK
0.0    0.0    0.0    0.0    0.0    
0.0    0.0    0.0    0.0    0.0    
0.0    0.0    0.0    0.0    0.0    
0.0    0.0    0.0    0.0    0.0    
0.0    0.0    0.0    0.0    -2.7755575616e-17    
-2.7755575616e-17    -2.7755575616e-17    -2.7755575616e-17    0.0    0.0    
0.0    0.0    0.0    0.0    0.0    
0.0    0.0    0.0    0.0    0.0    
0.0    0.0    0.0    -2.4651903288e-32    0.0    
0.0    0.0    0.0    0.0    0.0    
0.0    0.0    0.0    0.0    0.0    
0.0    0.0    0.0    0.0    0.0    
0.0    0.0    0.0    0.0    0.0    
0.0    -0.05    -0.05    -0.05    -0.05    
-0.05    -0.05    -0.05    -0.05    -0.05    
-0.05    -0.05    -0.05    -0.05    -0.05    
-0.05    -0.05    -0.05    -0.05    -0.05    
-0.05    -0.05    -0.05    -0.05    -0.05    
-0.05    -0.05    -0.05    -0.05    -0.05    
-0.05    -0.05    -0.05    -0.05    -0.05    
-0.05    -0.05    -0.05    -0.05    -0.05    
-0.05    -0.05    -0.05    -0.05    -0.05    
-0.05    -0.05    -0.05    -0.05    -0.05    
-0.05    -0.05    -0.05    -0.05    -0.05    
-0.05    -0.05    -0.05    -0.05    -0.05    
-0.05    -0.05    -0.05    -0.05    -0.05    
-0.05    -0.05    -0.1    -0.1    -0.1    
-0.1    -0.1    -0.1    -0.1    -0.1    
-0.1    -0.1    -0.1    -0.1    -0.1    
-0.1    -0.1    -0.1    -0.1    -0.1    
-0.1    -0.1    -0.1    -0.1    -0.1    
-0.1    -0.1    -0.1    -0.1    -0.1    
-0.1    -0.1    -0.1    -0.1    -0.1    
-0.1    -0.1    -0.1    -0.1    -0.1    
-0.1    -0.1    -0.1    -0.1    -0.1    
-0.1    -0.1    -0.1    -0.1    -0.1    
-0.1    -0.1    -0.1    -0.1    -0.1    
-0.1    -0.1    -0.1    -0.1    -0.1    
-0.1    -0.1    -0.1    -0.1    -0.1    
-0.1    -0.1    -0.1    -0.15    -0.15    
-0.15    -0.15    -0.15    -0.15    -0.15    
-0.15    -0.15    -0.15    -0.15    -0.15    
-0.15    -0.15    -0.15    -0.15    -0.15    
-0.15    -0.15    -0.15    -0.15    -0.15    
-0.15    -0.15    -0.15    -0.15    -0.15    
-0.15    -0.15    -0.15    -0.15    -0.15    
-0.15    -0.15    -0.15    -0.15    -0.15    
-0.15    -0.15    -0.15    -0.15    -0.15    
-0.15    -0.15    -0.15    -0.15    -0.15    
-0.15    -0.15    -0.15    -0.15    -0.15    
-0.15    -0.15    -0.15    -0.15    -0.15    
-0.15    -0.15    -0.15    -0.15    -0.15    
-0.15    -0.15    -0.15    -0.15    -0.2    
-0.2    -0.2    -0.2    -0.2    -0.2    
-0.2    -0.2    -0.2    -0.2    -0.2    
-0.2    -0.2    -0.2    -0.2    -0.2    
-0.2    -0.2    -0.2    -0.2    -0.2    
-0.2    -0.2    -0.2    -0.2    -0.2    
-0.2    -0.2    -0.2    -0.2    -0.2    
-0.2    -0.2    -0.2    -0.2    -0.2    
-0.2    -0.2    -0.2    -0.2    -0.2    
-0.2    -0.2    -0.2    -0.2    -0.2    
-0.2    -0.2    -0.2    -0.2    -0.2    
-0.2    -0.2    -0.2    -0.2    -0.2    
-0.2    -0.2    -0.2    -0.2    -0.2    
-0.2    -0.2    -0.2    -0.2    -0.2    
-0.25    -0.25    -0.25    -0.25    -0.25    
-0.25    -0.25    -0.25    -0.25    -0.25    
-0.25    -0.25    -0.25    -0.25    -0.25    
-0.25    -0.25    -0.25    -0.25    -0.25    
-0.25    -0.25    -0.25    -0.25    -0.25    
-0.25    -0.25    -0.25    -0.25    -0.25    
-0.25    -0.25    -0.25    -0.25    -0.25    
-0.25    -0.25    -0.25    -0.25    -0.25    
-0.25    -0.25    -0.25    -0.25    -0.25    
-0.25    -0.25    -0.25    -0.25    -0.25    
-0.25    -0.25    -0.25    -0.25    -0.25    
-0.25    -0.25    -0.25    -0.25    -0.25    
-0.25    -0.25    -0.25    -0.25    -0.25    
-0.25    
-0.5    -0.45    -0.45    -0.5    -0.4    
-0.4    -0.35    -0.35    -0.3    -0.3    
-0.25    -0.25    -0.5    -0.45    -0.4    
-0.35    -0.3    -0.25    -0.5    -0.45    
-0.4    -0.35    -0.3    -0.25    -0.5    
-0.45    -0.4    -0.35    -0.3    -0.25    
-0.5    -0.45    -0.4    -0.35    -0.3    
-0.25    -0.5    -0.45    -0.4    -0.35    
-0.3    -0.25    -0.5    -0.45    -0.4    
-0.35    -0.3    -0.25    -0.5    -0.45    
-0.4    -0.35    -0.3    -0.25    -0.5    
-0.45    -0.4    -0.35    -0.3    -0.25    
-0.5    -0.45    -0.4    -0.35    -0.3    
-0.25    -0.45    -0.5    -0.4    -0.35    
-0.3    -0.25    -0.45    -0.5    -0.4    
-0.35    -0.3    -0.25    -0.45    -0.5    
-0.4    -0.35    -0.3    -0.25    -0.45    
-0.5    -0.4    -0.35    -0.3    -0.25    
-0.45    -0.5    -0.4    -0.35    -0.3    
-0.25    -0.45    -0.5    -0.4    -0.35    
-0.3    -0.25    -0.45    -0.5    -0.4    
-0.35    -0.3    -0.25    -0.45    -0.5    
-0.4    -0.35    -0.3    -0.25    -0.45    
-0.5    -0.4    -0.35    -0.3    -0.25    
-0.45    -0.5    -0.4    -0.35    -0.3    
-0.25    -0.45    -0.5    -0.4    -0.35    
-0.3    -0.25    -0.45    -0.5    -0.4    
-0.35    -0.3    -0.25    -0.45    -0.5    
-0.4    -0.35    -0.3    -0.25    -0.45    
-0.5    -0.4    -0.35    -0.3    -0.25    
-0.45    -0.5    -0.4    -0.35    -0.3    
-0.25    -0.45    -0.5    -0.4    -0.35    
-0.3    -0.25    -0.45    -0.5    -0.4    
-0.35    -0.3    -0.25    -0.45    -0.5    
-0.4    -0.35    -0.3    -0.25    -0.45    
-0.5    -0.4    -0.35    -0.3    -0.25    
-0.45    -0.5    -0.4    -0.35    -0.3    
-0.25    -0.45    -0.5    -0.4    -0.35    
-0.3    -0.25    -0.45    -0.5    -0.4    
-0.35    -0.3    -0.25    -0.45    -0.5    
-0.4    -0.35    -0.3    -0.25    -0.45    
-0.5    -0.4    -0.35    -0.3    -0.25    
-0.45    -0.5    -0.4    -0.35    -0.3    
-0.25    -0.45    -0.5    -0.4    -0.35    
-0.3    -0.25    -0.45    -0.5    -0.4    
-0.35    -0.3    -0.25    -0.45    -0.5    
-0.4    -0.35    -0.3    -0.25    -0.45    
-0.5    -0.4    -0.35    -0.3    -0.25    
-0.45    -0.5    -0.4    -0.35    -0.3    
-0.25    -0.45    -0.5    -0.4    -0.35    
-0.3    -0.25    -0.45    -0.5    -0.4    
-0.35    -0.3    -0.25    -0.45    -0.5    
-0.4    -0.35    -0.3    -0.25    -0.45    
-0.5    -0.4    -0.35    -0.3    -0.25    
-0.45    -0.5    -0.4    -0.35    -0.3    
-0.25    -0.45    -0.5    -0.4    -0.35    
-0.3    -0.25    -0.45    -0.5    -0.4    
-0.35    -0.3    -0.25    -0.45    -0.5    
-0.4    -0.35    -0.3    -0.25    -0.45    
-0.5    -0.4    -0.35    -0.3    -0.25    
-0.45    -0.5    -0.4    -0.35    -0.3    
-0.25    -0.45    -0.5    -0.4    -0.35    
-0.3    -0.25    -0.45    -0.5    -0.4    
-0.35    -0.3    -0.25    -0.45    -0.5    
-0.4    -0.35    -0.3    -0.25    -0.45    
-0.5    -0.4    -0.35    -0.3    -0.25    
-0.45    -0.5    -0.4    -0.35    -0.3    
-0.25    -0.45    -0.5    -0.4    -0.35    
-0.3    -0.25    -0.45    -0.5    -0.4    
-0.35    -0.3    -0.25    -0.45    -0.5    
-0.4    -0.35    -0.3    -0.25    -0.45    
-0.5    -0.4    -0.35    -0.3    -0.25    
-0.45    -0.5    -0.4    -0.35    -0.3    
-0.25    -0.45    -0.5    -0.4    -0.35    
-0.3    -0.25    -0.45    -0.5    -0.4    
-0.35    -0.3    -0.25    -0.45    -0.5    
-0.4    -0.35    -0.3    -0.25    -0.45    
-0.5    -0.4    -0.35    -0.3    -0.25    
-0.45    -0.5    -0.4    -0.35    -0.3    
-0.25    
-0.05    -0.05    0.0    0.0    -0.05    
0.0    -0.05    0.0    -0.05    0.0    
-0.05    0.0    -0.1    -0.1    -0.1    
-0.1    -0.1    -0.1    -0.15    -0.15    
-0.15    -0.15    -0.15    -0.15    -0.2    
-0.2    -0.2    -0.2    -0.2    -0.2    
-0.25    -0.25    -0.25    -0.25    -0.25    
-0.25    -0.3    -0.3    -0.3    -0.3    
-0.3    -0.3    -0.35    -0.35    -0.35    
-0.35    -0.35    -0.35    -0.4    -0.4    
-0.4    -0.4    -0.4    -0.4    -0.45    
-0.45    -0.45    -0.45    -0.45    -0.45    
-0.5    -0.5    -0.5    -0.5    -0.5    
-0.5    0.0    0.0    0.0    0.0    
0.0    0.0    -0.05    -0.05    -0.05    
-0.05    -0.05    -0.05    -0.1    -0.1    
-0.1    -0.1    -0.1    -0.1    -0.15    
-0.15    -0.15    -0.15    -0.15    -0.15    
-0.2    -0.2    -0.2    -0.2    -0.2    
-0.2    -0.25    -0.25    -0.25    -0.25    
-0.25    -0.25    -0.3    -0.3    -0.3    
-0.3    -0.3    -0.3    -0.35    -0.35    
-0.35    -0.35    -0.35    -0.35    -0.4    
-0.4    -0.4    -0.4    -0.4    -0.4    
-0.45    -0.45    -0.45    -0.45    -0.45    
-0.45    -0.5    -0.5    -0.5    -0.5    
-0.5    -0.5    0.0    0.0    0.0    
0.0    0.0    0.0    -0.05    -0.05    
-0.05    -0.05    -0.05    -0.05    -0.1    
-0.1    -0.1    -0.1    -0.1    -0.1    
-0.15    -0.15    -0.15    -0.15    -0.15    
-0.15    -0.2    -0.2    -0.2    -0.2    
-0.2    -0.2    -0.25    -0.25    -0.25    
-0.25    -0.25    -0.25    -0.3    -0.3    
-0.3    -0.3    -0.3    -0.3    -0.35    
-0.35    -0.35    -0.35    -0.35    -0.35    
-0.4    -0.4    -0.4    -0.4    -0.4    
-0.4    -0.45    -0.45    -0.45    -0.45    
-0.45    -0.45    -0.5    -0.5    -0.5    
-0.5    -0.5    -0.5    0.0    0.0    
0.0    0.0    0.0    0.0    -0.05    
-0.05    -0.05    -0.05    -0.05    -0.05    
-0.1    -0.1    -0.1    -0.1    -0.1    
-0.1    -0.15    -0.15    -0.15    -0.15    
-0.15    -0.15    -0.2    -0.2    -0.2    
-0.2    -0.2    -0.2    -0.25    -0.25    
-0.25    -0.25    -0.25    -0.25    -0.3    
-0.3    -0.3    -0.3    -0.3    -0.3    
-0.35    -0.35    -0.35    -0.35    -0.35    
-0.35    -0.4    -0.4    -0.4    -0.4    
-0.4    -0.4    -0.45    -0.45    -0.45    
-0.45    -0.45    -0.45    -0.5    -0.5    
-0.5    -0.5    -0.5    -0.5    0.0    
0.0    0.0    0.0    0.0    0.0    
-0.05    -0.05    -0.05    -0.05    -0.05    
-0.05    -0.1    -0.1    -0.1    -0.1    
-0.1    -0.1    -0.15    -0.15    -0.15    
-0.15    -0.15    -0.15    -0.2    -0.2    
-0.2    -0.2    -0.2    -0.2    -0.25    
-0.25    -0.25    -0.25    -0.25    -0.25    
-0.3    -0.3    -0.3    -0.3    -0.3    
-0.3    -0.35    -0.35    -0.35    -0.35    
-0.35    -0.35    -0.4    -0.4    -0.4    
-0.4    -0.4    -0.4    -0.45    -0.45    
-0.45    -0.45    -0.45    -0.45    -0.5    
-0.5    -0.5    -0.5    -0.5    -0.5    
0.0    0.0    0.0    0.0    0.0    
0.0    -0.05    -0.05    -0.05    -0.05    
-0.05    -0.05    -0.1    -0.1    -0.1    
-0.1    -0.1    -0.1    -0.15    -0.15    
-0.15    -0.15    -0.15    -0.15    -0.2    
-0.2    -0.2    -0.2    -0.2    -0.2    
-0.25    -0.25    -0.25    -0.25    -0.25    
-0.25    -0.3    -0.3    -0.3    -0.3    
-0.3    -0.3    -0.35    -0.35    -0.35    
-0.35    -0.35    -0.35    -0.4    -0.4    
-0.4    -0.4    -0.4    -0.4    -0.45    
-0.45    -0.45    -0.45    -0.45    -0.45    
-0.5    -0.5    -0.5    -0.5    -0.5    
-0.5    
398.313051708    394.858290639    391.157475188    387.034980844    382.297641845    
398.353483963    394.98131788    391.368314725    387.342403296    382.714042307    
398.433589903    395.225108458    391.786270871    387.952182032    383.540684737    
398.551821753    395.585031863    392.403688614    388.853804897    384.764597264    
398.705791431    396.05391789    393.208622455    390.030650763    386.364830513    
398.892217766    396.621873201    394.184441163    391.45922746    388.311067072    
399.106896231    397.27616525    395.309543554    393.108558256    390.562397878    
399.344715985    398.001254363    396.55734201    394.939987777    393.066714023    
399.599744014    398.779039231    397.896644406    396.907643173    395.761127181    
399.865385442    399.589347127    399.292501897    398.959684187    398.573677669    
398.353483957    394.981317863    391.368314696    387.342403261    382.714042268    
398.392944299    395.10139168    391.574106477    387.642496697    383.120574364    
398.471125252    395.339331822    391.982060581    388.237746457    383.927641275    
398.586517331    395.690622629    392.584713044    389.117905894    385.122606228    
398.736791177    396.148270535    393.370413897    390.266768566    386.685050844    
398.918745738    396.702623964    394.32293918    391.661420096    388.585409927    
399.12827839    397.341258919    395.421211114    393.271634677    390.78376804    
399.360401306    398.049009352    396.639279983    395.059681456    393.229257757    
399.609323427    398.808206253    397.946695734    396.98077234    395.860465021    
399.868606956    399.599156197    399.309335669    398.984282391    398.607096673    
398.433589891    395.225108422    391.78627081    387.952181956    383.540684646    
398.471125245    395.3393318    391.982060546    388.237746409    383.927641221    
398.545493411    395.565682375    392.370194847    388.804192294    384.695873724    
398.65526051    395.899871208    392.943586662    389.641796216    385.833404338    
398.79821321    396.335253681    393.691169626    390.735169929    387.320860923    
398.971308875    396.862656225    394.597524849    392.062540823    389.130163494    
399.170646539    397.470265446    395.642610391    393.595169126    391.223362815    
399.391481987    398.143655297    396.801740236    395.297156217    393.552052898    
399.628305461    398.866013582    398.04593576    397.125866273    396.05774755    
399.874990581    399.618597377    399.342713462    399.033087869    398.67346739    
398.551821735    395.585031802    392.403688518    388.853804771    384.764597116    
398.586517315    395.690622579    392.584712962    389.117905787    385.122606108    
398.6552605    395.899871179    392.943586614    389.641796154    385.833404268    
398.756728408    396.208821396    393.473775042    390.416518184    386.885974881    
398.888878229    396.611341293    394.165068725    391.427883449    388.262476338    
399.048900412    397.098960536    395.003232853    392.65579747    389.937008837    
399.233191075    397.660765302    395.969751576    394.073709844    391.874519287    
399.437365305    398.283421178    397.041803771    395.648427307    394.030238689    
399.656328651    398.951381345    398.192585271    397.340497899    396.350018336    
399.884414851    399.647307819    399.392037558    399.10528557    398.771797755    
398.705791404    396.053917807    393.208622319    390.030650579    386.364830287    
398.736791152    396.148270455    393.370413767    390.266768392    386.685050629    
398.79821319    396.335253617    393.691169523    390.735169794    387.320860746    
398.888878218    396.611341256    394.165068668    391.427883372    388.262476231    
399.00696428    396.971065188    394.783010091    392.332270085    389.494025636    
399.149964168    397.406867132    395.532293977    393.430409035    390.992428206    
399.314659963    397.909002003    396.396387302    394.698594299    392.726392285    
399.497134241    398.465556045    397.354897052    396.107157421    394.655891625    
399.692833592    399.06263157    398.383855292    397.620804638    396.732452843    
399.896691755    399.684723601    399.456370783    399.19957791    398.900467901    

-0.475    -0.425    -0.375    -0.325    -0.275    
-0.475    -0.425    -0.375    -0.325    -0.275    
-0.475    -0.425    -0.375    -0.325    -0.275    
-0.475    -0.425    -0.375    -0.325    -0.275    
-0.475    -0.425    -0.375    -0.325    -0.275    
-0.475    -0.425    -0.375    -0.325    -0.275    
-0.475    -0.425    -0.375    -0.325    -0.275    
-0.475    -0.425    -0.375    -0.325    -0.275    
-0.475    -0.425    -0.375    -0.325    -0.275    
-0.475    -0.425    -0.375    -0.325    -0.275    
-0.475    -0.425    -0.375    -0.325    -0.275    
-0.475    -0.425    -0.375    -0.325    -0.275    
-0.475    -0.425    -0.375    -0.325    -0.275    
-0.475    -0.425    -0.375    -0.325    -0.275    
-0.475    -0.425    -0.375    -0.325    -0.275    
-0.475    -0.425    -0.375    -0.325    -0.275    
-0.475    -0.425    -0.375    -0.325    -0.275    
-0.475    -0.425    -0.375    -0.325    -0.275    
-0.475    -0.425    -0.375    -0.325    -0.275    
-0.475    -0.425    -0.375    -0.325    -0.275    
-0.475    -0.425    -0.375    -0.325    -0.275    
-0.475    -0.425    -0.375    -0.325    -0.275    
-0.475    -0.425    -0.375    -0.325    -0.275    
-0.475    -0.425    -0.375    -0.325    -0.275    
-0.475    -0.425    -0.375    -0.325    -0.275    
-0.475    -0.425    -0.375    -0.325    -0.275    
-0.475    -0.425    -0.375    -0.325    -0.275    
-0.475    -0.425    -0.375    -0.325    -0.275    
-0.475    -0.425    -0.375    -0.325    -0.275    
-0.475    -0.425    -0.375    -0.325    -0.275    
-0.475    -0.425    -0.375    -0.325    -0.275    
-0.475    -0.425    -0.375    -0.325    -0.275    
-0.475    -0.425    -0.375    -0.325    -0.275    
-0.475    -0.425    -0.375    -0.325    -0.275    
-0.475    -0.425    -0.375    -0.325    -0.275    
-0.475    -0.425    -0.375    -0.325    -0.275    
-0.475    -0.425    -0.375    -0.325    -0.275    
-0.475    -0.425    -0.375    -0.325    -0.275    
-0.475    -0.425    -0.375    -0.325    -0.275    
-0.475    -0.425    -0.375    -0.325    -0.275    
-0.475    -0.425    -0.375    -0.325    -0.275    
-0.475    -0.425    -0.375    -0.325    -0.275    
-0.475    -0.425    -0.375    -0.325    -0.275    
-0.475    -0.425    -0.375    -0.325    -0.275    
-0.475    -0.425    -0.375    -0.325    -0.275    
-0.475    -0.425    -0.375    -0.325    -0.275    
-0.475    -0.425    -0.375    -0.325    -0.275    
-0.475    -0.425    -0.375    -0.325    -0.275    
-0.475    -0.425    -0.375    -0.325    -0.275    
-0.475    -0.425    -0.375    -0.325    -0.275    

3     2     73     67     4     1     74     68     
67     73     2     3     69     75     5     6     
69     75     5     6     70     76     7     8     
70     76     7     8     71     77     9     10     
71     77     9     10     72     78     11     12     
73     74     1     2     79     80     13     14     
75     73     2     5     81     79     14     15     
76     75     5     7     82     81     15     16     
77     76     7     9     83     82     16     17     
78     77     9     11     84     83     17     18     
79     80     13     14     85     86     19     20     
81     79     14     15     87     85     20     21     
82     81     15     16     88     87     21     22     
83     82     16     17     89     88     22     23     
84     83     17     18     90     89     23     24     
85     86     19     20     91     92     25     26     
87     85     20     21     93     91     26     27     
88     87     21     22     94     93     27     28     
89     88     22     23     95     94     28     29     
90     89     23     24     96     95     29     30     
91     92     25     26     97     98     31     32     
93     91     26     27     99     97     32     33     
94     93     27     28     100     99     33     34     
95     94     28     29     101     100     34     35     
96     95     29     30     102     101     35     36     
97     98     31     32     103     104     37     38     
99     97     32     33     105     103     38     39     
100     99     33     34     106     105     39     40     
101     100     34     35     107     106     40     41     
102     101     35     36     108     107     41     42     
103     104     37     38     109     110     43     44     
105     103     38     39     111     109     44     45     
106     105     39     40     112     111     45     46     
107     106     40     41     113     112     46     47     
108     107     41     42     114     113     47     48     
109     110     43     44     115     116     49     50     
111     109     44     45     117     115     50     51     
112     111     45     46     118     117     51     52     
113     112     46     47     119     118     52     53     
114     113     47     48     120     119     53     54     
115     116     49     50     121     122     55     56     
117     115     50     51     123     121     56     57     
118     117     51     52     124     123     57     58     
119     118     52     53     125     124     58     59     
120     119     53     54     126     125     59     60     
121     122     55     56     127     128     61     62     
123     121     56     57     129     127     62     63     
124     123     57     58     130     129     63     64     
125     124     58     59     131     130     64     65     
126     125     59     60     132     131     65     66     
74     73     67     68     140     139     133     134     
73     75     69     67     139     141     135     133     
75     76     70     69     141     142     136     135     
76     77     71     70     142     143     137     136     
77     78     72     71     143     144     138     137     
80     79     73     74     146     145     139     140     
79     81     75     73     145     147     141     139     
81     82     76     75     147     148     142     141     
82     83     77     76     148     149     143     142     
83     84     78     77     149     150     144     143     
86     85     79     80     152     151     145     146     
85     87     81     79     151     153     147     145     
87     88     82     81     153     154     148     147     
88     89     83     82     154     155     149     148     
89     90     84     83     155     156     150     149     
92     91     85     86     158     157     151     152     
91     93     87     85     157     159     153     151     
93     94     88     87     159     160     154     153     
94     95     89     88     160     161     155     154     
95     96     90     89     161     162     156     155     
98     97     91     92     164     163     157     158     
97     99     93     91     163     165     159     157     
99     100     94     93     165     166     160     159     
100     101     95     94     166     167     161     160     
101     102     96     95     167     168     162     161     
104     103     97     98     170     169     163     164     
103     105     99     97     169     171     165     163     
105     106     100     99     171     172     166     165     
106     107     101     100     172     173     167     166     
107     108     102     101     173     174     168     167     
110     109     103     104     176     175     169     170     
109     111     105     103     175     177     171     169     
111     112     106     105     177     178     172     171     
112     113     107     106     178     179     173     172     
113     114     108     107     179     180     174     173     
116     115     109     110     182     181     175     176     
115     117     111     109     181     183     177     175     
117     118     112     111     183     184     178     177     
118     119     113     112     184     185     179     178     
119     120     114     113     185     186     180     179     
122     121     115     116     188     187     181     182     
121     123     117     115     187     189     183     181     
123     124     118     117     189     190     184     183     
124     125     119     118     190     191     185     184     
125     126     120     119     191     192     186     185     
128     127     121     122     194     193     187     188     
127     129     123     121     193     195     189     187     
129     130     124     123     195     196     190     189     
130     131     125     124     196     197     191     190     
131     132     126     125     197     198     192     191     
140     139     133     134     206     205     199     200     
139     141     135     133     205     207     201     199     
141     142     136     135     207     208     202     201     
142     143     137     136     208     209     203     202     
143     144     138     137     209     210     204     203     
146     145     139     140     212     211     205     206     
145     147     141     139     211     213     207     205     
147     148     142     141     213     214     208     207     
148     149     143     142     214     215     209     208     
149     150     144     143     215     216     210     209     
152     151     145     146     218     217     211     212     
151     153     147     145     217     219     213     211     
153     154     148     147     219     220     214     213     
154     155     149     148     220     221     215     214     
155     156     150     149     221     222     216     215     
158     157     151     152     224     223     217     218     
157     159     153     151     223     225     219     217     
159     160     154     153     225     226     220     219     
160     161     155     154     226     227     221     220     
161     162     156     155     227     228     222     221     
164     163     157     158     230     229     223     224     
163     165     159     157     229     231     225     223     
165     166     160     159     231     232     226     225     
166     167     161     160     232     233     227     226     
167     168     162     161     233     234     228     227     
170     169     163     164     236     235     229     230     
169     171     165     163     235     237     231     229     
171     172     166     165     237     238     232     231     
172     173     167     166     238     239     233     232     
173     174     168     167     239     240     234     233     
176     175     169     170     242     241     235     236     
175     177     171     169     241     243     237     235     
177     178     172     171     243     244     238     237     
178     179     173     172     244     245     239     238     
179     180     174     173     245     246     240     239     
182     181     175     176     248     247     241     242     
181     183     177     175     247     249     243     241     
183     184     178     177     249     250     244     243     
184     185     179     178     250     251     245     244     
185     186     180     179     251     252     246     245     
188     187     181     182     254     253     247     248     
187     189     183     181     253     255     249     247     
189     190     184     183     255     256     250     249     
190     191     185     184     256     257     251     250     
191     192     186     185     257     258     252     251     
194     193     187     188     260     259     253     254     
193     195     189     187     259     261     255     253     
195     196     190     189     261     262     256     255     
196     197     191     190     262     263     257     256     
197     198     192     191     263     264     258     257     
206     205     199     200     272     271     265     266     
205     207     201     199     271     273     267     265     
207     208     202     201     273     274     268     267     
208     209     203     202     274     275     269     268     
209     210     204     203     275     276     270     269     
212     211     205     206     278     277     271     272     
211     213     207     205     277     279     273     271     
213     214     208     207     279     280     274     273     
214     215     209     208     280     281     275     274     
215     216     210     209     281     282     276     275     
218     217     211     212     284     283     277     278     
217     219     213     211     283     285     279     277     
219     220     214     213     285     286     280     279     
220     221     215     214     286     287     281     280     
221     222     216     215     287     288     282     281     
224     223     217     218     290     289     283     284     
223     225     219     217     289     291     285     283     
225     226     220     219     291     292     286     285     
226     227     221     220     292     293     287     286     
227     228     222     221     293     294     288     287     
230     229     223     224     296     295     289     290     
229     231     225     223     295     297     291     289     
231     232     226     225     297     298     292     291     
232     233     227     226     298     299     293     292     
233     234     228     227     299     300     294     293     
236     235     229     230     302     301     295     296     
235     237     231     229     301     303     297     295     
237     238     232     231     303     304     298     297     
238     239     233     232     304     305     299     298     
239     240     234     233     305     306     300     299     
242     241     235     236     308     307     301     302     
241     243     237     235     307     309     303     301     
243     244     238     237     309     310     304     303     
244     245     239     238     310     311     305     304     
245     246     240     239     311     312     306     305     
248     247     241     242     314     313     307     308     
247     249     243     241     313     315     309     307     
249     250     244     243     315     316     310     309     
250     251     245     244     316     317     311     310     
251     252     246     245     317     318     312     311     
254     253     247     248     320     319     313     314     
253     255     249     247     319     321     315     313     
255     256     250     249     321     322     316     315     
256     257     251     250     322     323     317     316     
257     258     252     251     323     324     318     317     
260     259     253     254     326     325     319     320     
259     261     255     253     325     327     321     319     
261     262     256     255     327     328     322     321     
262     263     257     256     328     329     323     322     
263     264     258     257     329     330     324     323     
272     271     265     266     338     337     331     332     