Title = " tecplot file for 2D Cavity problem " 
variables = "x", "y", "z", "velX", "cellCentroidY" 
Zone T = "nmesh0" N = 444 E = 247 DATAPACKING = BLOCK, VARLOCATION = ([4-5]=CELLCENTERED),  ZONETYPE=FEBRICK 
0.45    0.45    0.5    0.5    0.45    
0.45    0.5    0.5    0.45    0.5    
0.45    0.5    0.45    0.5    0.45    
0.5    0.45    0.5    0.45    0.5    
0.45    0.5    0.45    0.5    0.45    
0.5    0.45    0.5    0.45    0.5    
0.45    0.5    0.45    0.5    0.45    
0.5    0.45    0.5    0.45    0.5    
0.45    0.5    0.45    0.5    0.45    
0.5    0.45    0.5    0.45    0.5    
0.45    0.5    0.45    0.5    0.45    
0.5    0.45    0.5    0.45    0.5    
0.45    0.5    0.45    0.5    0.45    
0.5    0.45    0.5    0.45    0.5    
0.45    0.5    0.45    0.5    0.45    
0.5    0.45    0.5    0.45    0.5    
0.45    0.5    0.45    0.5    0.45    
0.5    0.45    0.5    0.45    0.5    
0.45    0.5    0.45    0.5    0.45    
0.5    0.45    0.5    0.45    0.5    
0.45    0.45    0.5    0.45    0.5    
0.45    0.5    0.45    0.5    0.45    
0.5    0.45    0.5    0.45    0.5    
0.4    0.4    0.4    0.4    0.4    
0.4    0.4    0.4    0.4    0.4    
0.4    0.4    0.4    0.4    0.4    
0.4    0.4    0.4    0.4    0.4    
0.4    0.4    0.4    0.4    0.4    
0.4    0.4    0.4    0.4    0.4    
0.4    0.4    0.4    0.4    0.4    
0.4    0.4    0.4    0.4    0.4    
0.4    0.4    0.4    0.4    0.4    
0.4    0.4    0.4    0.4    0.4    
0.4    0.4    0.4    0.4    0.4    
0.4    0.4    0.4    0.35    0.35    
0.35    0.35    0.35    0.35    0.35    
0.35    0.35    0.35    0.35    0.35    
0.35    0.35    0.35    0.35    0.35    
0.35    0.35    0.35    0.35    0.35    
0.35    0.35    0.35    0.35    0.35    
0.35    0.35    0.35    0.35    0.35    
0.35    0.35    0.35    0.35    0.35    
0.35    0.35    0.35    0.35    0.35    
0.35    0.35    0.35    0.35    0.35    
0.35    0.35    0.35    0.35    0.35    
0.35    0.35    0.35    0.35    0.35    
0.35    0.35    0.35    0.35    0.35    
0.3    0.3    0.3    0.3    0.3    
0.3    0.3    0.3    0.3    0.3    
0.3    0.3    0.3    0.3    0.3    
0.3    0.3    0.3    0.3    0.3    
0.3    0.3    0.3    0.3    0.3    
0.3    0.3    0.3    0.3    0.3    
0.3    0.3    0.3    0.3    0.3    
0.3    0.3    0.3    0.3    0.3    
0.3    0.3    0.3    0.3    0.3    
0.3    0.3    0.3    0.3    0.3    
0.3    0.3    0.3    0.3    0.3    
0.3    0.3    0.3    0.25    0.25    
0.25    0.25    0.25    0.25    0.25    
0.25    0.25    0.25    0.25    0.25    
0.25    0.25    0.25    0.25    0.25    
0.25    0.25    0.25    0.25    0.25    
0.25    0.25    0.25    0.25    0.25    
0.25    0.25    0.25    0.25    0.25    
0.25    0.25    0.25    0.25    0.25    
0.25    0.25    0.25    0.25    0.25    
0.25    0.25    0.25    0.25    0.25    
0.25    0.25    0.25    0.25    0.25    
0.25    0.25    0.25    0.25    0.25    
0.25    0.25    0.25    0.25    0.25    
0.25    0.25    0.25    0.25    0.2    
0.2    0.2    0.2    0.2    0.2    
0.2    0.2    0.2    0.2    0.2    
0.2    0.2    0.2    0.2    0.2    
0.2    0.2    0.2    0.2    0.2    
0.2    0.2    0.2    0.2    0.2    
0.2    0.2    0.2    0.2    0.2    
0.2    0.2    0.2    0.2    0.2    
0.2    0.2    0.2    0.2    0.2    
0.2    0.2    0.2    0.2    0.2    
0.2    0.2    0.2    0.2    0.2    
0.2    0.2    0.2    0.2    0.2    
0.2    0.15    0.15    0.15    0.15    
0.15    0.15    0.15    0.15    0.15    
0.15    0.15    0.15    0.15    0.15    
0.15    0.15    0.15    0.15    0.15    
0.15    0.15    0.15    0.15    0.15    
0.15    0.15    0.15    0.15    
-0.35    -0.4    -0.4    -0.35    -0.45    
-0.5    -0.5    -0.45    -0.4    -0.4    
-0.35    -0.35    -0.3    -0.3    -0.45    
-0.45    -0.5    -0.5    -0.4    -0.4    
-0.35    -0.35    -0.3    -0.3    -0.25    
-0.25    -0.2    -0.2    -0.45    -0.45    
-0.5    -0.5    -0.4    -0.4    -0.35    
-0.35    -0.3    -0.3    -0.25    -0.25    
-0.2    -0.2    -0.15    -0.15    -0.1    
-0.1    -0.45    -0.45    -0.5    -0.5    
-0.4    -0.4    -0.35    -0.35    -0.3    
-0.3    -0.25    -0.25    -0.2    -0.2    
-0.15    -0.15    -0.1    -0.1    -0.45    
-0.45    -0.5    -0.5    -0.4    -0.4    
-0.35    -0.35    -0.3    -0.3    -0.25    
-0.25    -0.2    -0.2    -0.15    -0.15    
-0.1    -0.1    -0.45    -0.45    -0.5    
-0.5    -0.4    -0.4    -0.35    -0.35    
-0.3    -0.3    -0.25    -0.25    -0.2    
-0.2    -0.15    -0.15    -0.45    -0.45    
-0.5    -0.4    -0.4    -0.35    -0.35    
-0.3    -0.3    -0.25    -0.25    -0.2    
-0.2    -0.25    -0.25    -0.2    -0.2    
-0.45    -0.5    -0.4    -0.35    -0.3    
-0.45    -0.5    -0.4    -0.35    -0.3    
-0.25    -0.25    -0.2    -0.45    -0.5    
-0.4    -0.35    -0.3    -0.25    -0.2    
-0.15    -0.45    -0.5    -0.4    -0.35    
-0.3    -0.25    -0.2    -0.15    -0.1    
-0.45    -0.5    -0.4    -0.35    -0.3    
-0.25    -0.2    -0.15    -0.1    -0.45    
-0.5    -0.4    -0.35    -0.3    -0.25    
-0.2    -0.15    -0.45    -0.5    -0.4    
-0.35    -0.3    -0.25    -0.2    -0.25    
-0.2    -0.25    -0.2    -0.45    -0.5    
-0.45    -0.5    -0.4    -0.4    -0.35    
-0.3    -0.25    -0.45    -0.5    -0.4    
-0.35    -0.3    -0.25    -0.45    -0.5    
-0.4    -0.35    -0.3    -0.25    -0.2    
-0.15    -0.45    -0.5    -0.4    -0.35    
-0.3    -0.25    -0.2    -0.15    -0.1    
-0.45    -0.5    -0.4    -0.35    -0.3    
-0.25    -0.2    -0.15    -0.1    -0.45    
-0.5    -0.4    -0.35    -0.3    -0.25    
-0.2    -0.15    -0.45    -0.5    -0.4    
-0.35    -0.3    -0.25    -0.2    -0.15    
-0.25    -0.2    -0.15    -0.25    -0.2    
-0.45    -0.5    -0.4    -0.45    -0.5    
-0.4    -0.25    -0.3    -0.45    -0.5    
-0.4    -0.35    -0.3    -0.25    -0.45    
-0.5    -0.4    -0.35    -0.3    -0.25    
-0.2    -0.2    -0.15    -0.45    -0.5    
-0.4    -0.35    -0.3    -0.25    -0.2    
-0.15    -0.1    -0.1    -0.45    -0.5    
-0.4    -0.35    -0.3    -0.25    -0.2    
-0.15    -0.1    -0.45    -0.5    -0.4    
-0.35    -0.3    -0.25    -0.2    -0.15    
-0.45    -0.5    -0.25    -0.2    -0.15    
-0.25    -0.2    -0.15    -0.45    -0.4    
-0.4    -0.45    -0.35    -0.35    -0.45    
-0.5    -0.4    -0.35    -0.45    -0.5    
-0.4    -0.35    -0.45    -0.5    -0.4    
-0.35    -0.3    -0.25    -0.2    -0.45    
-0.5    -0.4    -0.35    -0.3    -0.25    
-0.2    -0.15    -0.1    -0.45    -0.5    
-0.4    -0.35    -0.3    -0.25    -0.2    
-0.15    -0.1    -0.45    -0.5    -0.4    
-0.35    -0.3    -0.25    -0.2    -0.15    
-0.1    -0.45    -0.5    -0.4    -0.35    
-0.3    -0.25    -0.2    -0.15    -0.45    
-0.5    -0.35    -0.3    -0.25    -0.2    
-0.15    -0.25    -0.2    -0.15    -0.4    
-0.45    -0.35    -0.45    -0.4    -0.35    
-0.45    -0.5    -0.4    -0.35    -0.45    
-0.5    -0.4    -0.35    -0.45    -0.5    
-0.4    -0.35    -0.3    -0.25    -0.2    
-0.45    -0.5    -0.4    -0.35    -0.3    
-0.25    -0.2    -0.45    -0.5    -0.4    
-0.35    -0.3    -0.25    -0.2    -0.45    
-0.5    -0.4    -0.35    -0.3    -0.25    
-0.2    -0.45    -0.4    -0.35    -0.3    
-0.25    -0.2    -0.15    -0.35    -0.3    
-0.25    -0.2    -0.15    -0.25    -0.2    
-0.15    -0.4    -0.45    -0.35    -0.45    
-0.4    -0.35    -0.25    -0.3    -0.2    
-0.3    -0.25    -0.2    -0.3    -0.25    
-0.2    -0.3    -0.35    -0.25    -0.2    
-0.15    -0.35    -0.3    -0.25    -0.2    
-0.15    -0.25    -0.2    -0.15    
0.35    0.35    0.35    0.35    0.3    
0.3    0.3    0.3    0.3    0.3    
0.3    0.3    0.3    0.3    0.25    
0.25    0.25    0.25    0.25    0.25    
0.25    0.25    0.25    0.25    0.25    
0.25    0.25    0.25    0.2    0.2    
0.2    0.2    0.2    0.2    0.2    
0.2    0.2    0.2    0.2    0.2    
0.2    0.2    0.2    0.2    0.2    
0.2    0.15    0.15    0.15    0.15    
0.15    0.15    0.15    0.15    0.15    
0.15    0.15    0.15    0.15    0.15    
0.15    0.15    0.15    0.15    0.1    
0.1    0.1    0.1    0.1    0.1    
0.1    0.1    0.1    0.1    0.1    
0.1    0.1    0.1    0.1    0.1    
0.1    0.1    0.05    0.05    0.05    
0.05    0.05    0.05    0.05    0.05    
0.05    0.05    0.05    0.05    0.05    
0.05    0.05    0.05    0.0    0.0    
0.0    0.0    0.0    0.0    0.0    
0.0    0.0    0.0    0.0    0.0    
0.0    -0.05    -0.05    -0.05    -0.05    
0.3    0.3    0.3    0.3    0.3    
0.25    0.25    0.25    0.25    0.25    
0.25    0.3    0.25    0.2    0.2    
0.2    0.2    0.2    0.2    0.2    
0.2    0.15    0.15    0.15    0.15    
0.15    0.15    0.15    0.15    0.15    
0.1    0.1    0.1    0.1    0.1    
0.1    0.1    0.1    0.1    0.05    
0.05    0.05    0.05    0.05    0.05    
0.05    0.05    0.0    0.0    0.0    
0.0    0.0    0.0    0.0    -0.05    
-0.05    -0.1    -0.1    0.3    0.3    
0.35    0.35    0.3    0.35    0.3    
0.3    0.3    0.25    0.25    0.25    
0.25    0.25    0.25    0.2    0.2    
0.2    0.2    0.2    0.2    0.2    
0.2    0.15    0.15    0.15    0.15    
0.15    0.15    0.15    0.15    0.15    
0.1    0.1    0.1    0.1    0.1    
0.1    0.1    0.1    0.1    0.05    
0.05    0.05    0.05    0.05    0.05    
0.05    0.05    0.0    0.0    0.0    
0.0    0.0    0.0    0.0    0.0    
-0.05    -0.05    -0.05    -0.1    -0.1    
0.35    0.35    0.35    0.3    0.3    
0.3    0.3    0.3    0.25    0.25    
0.25    0.25    0.25    0.25    0.2    
0.2    0.2    0.2    0.2    0.2    
0.2    0.25    0.2    0.15    0.15    
0.15    0.15    0.15    0.15    0.15    
0.15    0.15    0.2    0.1    0.1    
0.1    0.1    0.1    0.1    0.1    
0.1    0.1    0.05    0.05    0.05    
0.05    0.05    0.05    0.05    0.05    
0.0    0.0    0.0    0.0    0.0    
-0.05    -0.05    -0.05    0.4    0.4    
0.45    0.45    0.4    0.45    0.35    
0.35    0.35    0.35    0.3    0.3    
0.3    0.3    0.25    0.25    0.25    
0.25    0.25    0.25    0.25    0.2    
0.2    0.2    0.2    0.2    0.2    
0.2    0.2    0.2    0.15    0.15    
0.15    0.15    0.15    0.15    0.15    
0.15    0.15    0.1    0.1    0.1    
0.1    0.1    0.1    0.1    0.1    
0.1    0.05    0.05    0.05    0.05    
0.05    0.05    0.05    0.05    0.0    
0.0    0.0    -2.4651903288e-32    0.0    0.0    
2.4651903288e-32    -0.05    -0.05    -0.05    0.45    
0.45    0.45    0.4    0.4    0.4    
0.35    0.35    0.35    0.35    0.3    
0.3    0.3    0.3    0.25    0.25    
0.25    0.25    0.25    0.25    0.25    
0.2    0.2    0.2    0.2    0.2    
0.2    0.2    0.15    0.15    0.15    
0.15    0.15    0.15    0.15    0.1    
0.1    0.1    0.1    0.1    0.1    
0.1    0.05    0.05    0.05    0.05    
0.05    0.05    0.05    0.0    0.0    
0.0    0.0    0.0    -0.05    -0.05    
-0.05    0.45    0.45    0.45    0.4    
0.4    0.4    0.2    0.2    0.2    
0.15    0.15    0.15    0.1    0.1    
0.1    0.05    0.05    0.05    0.05    
0.05    0.0    0.0    0.0    0.0    
0.0    -0.05    -0.05    -0.05    
399.534401127    399.624414868    399.730063284    399.911561999    399.896691756    
399.737048931    399.684723603    399.197439555    399.314116495    399.456370787    
398.615842456    399.199577918    397.961286502    399.884414851    399.692833593    
399.647307819    399.062631574    399.39203756    398.3838553    398.900467914    
399.105285575    397.620804657    398.542341746    398.771797764    396.732452874    
398.373345103    395.669545938    399.874990581    399.656328651    399.618597377    
398.951381345    399.342713463    398.192585273    399.033087873    397.340497909    
398.673467398    396.350018355    397.887359    398.244541899    395.167375313    
397.28504182    397.722581104    393.726204355    397.077577555    399.868606956    
399.62830546    399.599156197    398.86601358    399.309335669    398.045935759    
398.984282394    397.125866279    398.607096681    396.057747567    398.157784264    
394.784615421    397.611904595    393.236684675    391.326074943    399.609323426    
399.589347127    398.808206251    399.292501898    397.946695733    398.959684189    
396.980772344    398.573677674    395.860465033    398.114158003    394.526788669    
392.907866072    398.779039227    397.896644402    396.907643171    395.761127183    
398.114157995    394.397136074    394.397136046    399.569524786    398.68625024    
397.734622516    396.664329656    399.497134242    398.465556048    397.354897063    
396.107157446    394.655891669    399.437365304    398.283421174    397.041803772    
395.64842732    394.030238715    392.100522732    389.752882847    399.391481985    
398.14365529    396.801740233    395.297156223    393.55205292    391.474554417    
388.952766181    385.846868847    399.599744013    399.360401304    398.049009344    
396.639279976    395.059681457    393.22925777    391.052865162    388.415245253    
399.344715982    398.001254353    396.557342    394.939987767    393.066714012    
390.840799603    390.840799569    399.413328259    398.209776298    395.417426854    
393.763150882    399.314659964    397.909002005    396.396387309    394.698594319    
392.726392324    399.233191072    397.660765295    395.969751572    394.073709851    
391.874519311    389.2564033    386.078435786    399.170646535    397.470265432    
395.642610379    393.595169127    391.223362834    388.404504101    384.990361067    
380.79763858    399.128278384    397.341258899    395.421211095    393.271634666    
390.783768041    387.830545273    384.25926211    399.106896224    387.541882114    
391.052865068    387.541882072    398.556375421    399.52697937    399.413328255    
398.209776287    399.272357398    397.779916941    399.149964167    397.406867126    
395.532293971    393.430409048    390.992428245    399.048900406    397.098960518    
395.003232833    392.655797461    389.937008851    386.706668295    382.795688081    
398.971308866    396.862656198    394.597524816    392.062540804    389.130163501    
385.651797723    381.449559676    376.30612426    398.918745725    396.702623929    
394.322939132    391.661420057    388.58540991    384.940990117    383.892198176    
380.544889046    398.892217751    384.583469749    383.89219811    380.090622805    
384.583469706    380.090622722    399.314659953    397.909001976    399.149964159    
397.406867099    399.006964274    396.971065168    394.783010063    392.332270056    
388.0900075    389.494025637    386.122074963    398.888878218    396.611341257    
394.165068673    391.427883395    388.26247631    384.509104333    377.995553521    
398.798213194    396.335253637    393.691169561    390.735169865    387.320860901    
383.278900659    396.148270484    393.370413815    390.266768486    386.685050821    
382.449829027    382.032786803    376.824744737    382.032786758    376.824744664    
398.383855281    399.062631558    398.465556024    398.951381324    397.354897031    
398.19258524    396.396387265    395.532293924    386.885974813    382.707569935    
385.83340428    381.333314076    390.030650689    386.364830472    385.122606178    
380.407037818    388.853804807    384.764597202    379.941060123    374.155917989    
379.941060061    374.155917902    
-0.375    -0.375    -0.425    -0.475    -0.475    
-0.475    -0.425    -0.425    -0.325    -0.375    
-0.375    -0.325    -0.325    -0.475    -0.475    
-0.425    -0.425    -0.375    -0.375    -0.275    
-0.325    -0.325    -0.225    -0.275    -0.275    
-0.225    -0.225    -0.475    -0.475    -0.425    
-0.425    -0.375    -0.375    -0.325    -0.325    
-0.275    -0.275    -0.175    -0.225    -0.225    
-0.125    -0.175    -0.175    -0.125    -0.475    
-0.475    -0.425    -0.425    -0.375    -0.375    
-0.325    -0.325    -0.275    -0.275    -0.225    
-0.225    -0.175    -0.175    -0.125    -0.475    
-0.425    -0.425    -0.375    -0.375    -0.325    
-0.325    -0.275    -0.275    -0.225    -0.225    
-0.175    -0.425    -0.375    -0.325    -0.275    
-0.225    -0.225    -0.225    -0.475    -0.425    
-0.375    -0.325    -0.475    -0.425    -0.375    
-0.325    -0.275    -0.475    -0.425    -0.375    
-0.325    -0.275    -0.225    -0.175    -0.475    
-0.425    -0.375    -0.325    -0.275    -0.225    
-0.175    -0.125    -0.475    -0.475    -0.425    
-0.375    -0.325    -0.275    -0.225    -0.175    
-0.475    -0.425    -0.375    -0.325    -0.275    
-0.225    -0.225    -0.475    -0.425    -0.275    
-0.275    -0.475    -0.425    -0.375    -0.325    
-0.275    -0.475    -0.425    -0.375    -0.325    
-0.275    -0.225    -0.175    -0.475    -0.425    
-0.375    -0.325    -0.275    -0.225    -0.175    
-0.125    -0.475    -0.425    -0.375    -0.325    
-0.275    -0.225    -0.175    -0.475    -0.225    
-0.225    -0.225    -0.425    -0.475    -0.475    
-0.425    -0.475    -0.425    -0.475    -0.425    
-0.375    -0.325    -0.275    -0.475    -0.425    
-0.375    -0.325    -0.275    -0.225    -0.175    
-0.475    -0.425    -0.375    -0.325    -0.275    
-0.225    -0.175    -0.125    -0.475    -0.425    
-0.375    -0.325    -0.275    -0.225    -0.175    
-0.175    -0.475    -0.225    -0.175    -0.175    
-0.225    -0.175    -0.475    -0.425    -0.475    
-0.425    -0.475    -0.425    -0.375    -0.325    
-0.225    -0.275    -0.225    -0.475    -0.425    
-0.375    -0.325    -0.275    -0.225    -0.125    
-0.475    -0.425    -0.375    -0.325    -0.275    
-0.225    -0.425    -0.375    -0.325    -0.275    
-0.225    -0.225    -0.175    -0.225    -0.175    
-0.375    -0.425    -0.425    -0.425    -0.375    
-0.375    -0.375    -0.375    -0.275    -0.225    
-0.275    -0.225    -0.325    -0.275    -0.275    
-0.225    -0.325    -0.275    -0.225    -0.175    
-0.225    -0.175    
11     9     10     12     21     19     20     22     
12     10     9     11     4     3     2     1     
5     15     16     8     9     19     20     10     
8     16     15     5     7     18     17     6     
15     17     18     16     29     31     32     30     
17     15     5     6     122     121     116     117     
19     15     16     20     33     29     30     34     
15     19     9     5     121     123     118     116     
11     21     22     12     13     23     24     14     
21     19     20     22     35     33     34     36     
19     21     11     9     123     124     119     118     
23     21     22     24     37     35     36     38     
21     23     13     11     124     125     120     119     
29     31     32     30     47     49     50     48     
31     29     15     17     130     129     121     122     
33     29     30     34     51     47     48     52     
29     33     19     15     129     131     123     121     
35     33     34     36     53     51     52     54     
33     35     21     19     131     132     124     123     
23     37     38     24     25     39     40     26     
37     35     36     38     55     53     54     56     
35     37     23     21     132     133     125     124     
25     39     40     26     27     41     42     28     
39     37     38     40     57     55     56     58     
37     39     25     23     133     134     126     125     
41     39     40     42     59     57     58     60     
39     41     27     25     134     135     128     126     
47     49     50     48     65     67     68     66     
49     47     29     31     138     137     129     130     
51     47     48     52     69     65     66     70     
47     51     33     29     137     139     131     129     
53     51     52     54     71     69     70     72     
51     53     35     33     139     140     132     131     
55     53     54     56     73     71     72     74     
53     55     37     35     140     141     133     132     
57     55     56     58     75     73     74     76     
55     57     39     37     141     142     134     133     
41     59     60     42     43     61     62     44     
59     57     58     60     77     75     76     78     
57     59     41     39     142     143     135     134     
43     61     62     44     45     63     64     46     
61     59     60     62     79     77     78     80     
59     61     43     41     143     144     136     135     
63     61     62     64     81     79     80     82     
65     67     68     66     83     85     86     84     
67     65     47     49     147     146     137     138     
69     65     66     70     87     83     84     88     
65     69     51     47     146     148     139     137     
71     69     70     72     89     87     88     90     
69     71     53     51     148     149     140     139     
73     71     72     74     91     89     90     92     
71     73     55     53     149     150     141     140     
75     73     74     76     93     91     92     94     
73     75     57     55     150     151     142     141     
77     75     76     78     95     93     94     96     
75     77     59     57     151     152     143     142     
79     77     78     80     97     95     96     98     
77     79     61     59     152     153     144     143     
79     81     63     61     153     154     145     144     
85     83     65     67     156     155     146     147     
87     83     84     88     102     99     100     103     
83     87     69     65     155     157     148     146     
89     87     88     90     104     102     103     105     
87     89     71     69     157     158     149     148     
91     89     90     92     106     104     105     107     
89     91     73     71     158     159     150     149     
93     91     92     94     108     106     107     109     
91     93     75     73     159     160     151     150     
95     93     94     96     110     108     109     111     
93     95     77     75     160     161     152     151     
95     97     79     77     161     162     153     152     
99     102     87     83     163     165     157     155     
102     104     89     87     165     166     158     157     
104     106     91     89     166     167     159     158     
106     108     93     91     167     168     160     159     
110     108     109     111     114     112     113     115     
108     110     95     93     168     169     161     160     
112     114     110     108     170     171     169     168     
122     121     116     117     184     183     174     175     
121     123     118     116     183     185     178     174     
123     124     119     118     185     186     180     178     
124     125     120     119     186     187     181     180     
130     129     121     122     190     189     183     184     
129     131     123     121     189     191     185     183     
131     132     124     123     191     192     186     185     
132     133     125     124     192     193     187     186     
133     134     126     125     193     194     188     187     
138     137     129     130     198     197     189     190     
137     139     131     129     197     199     191     189     
139     140     132     131     199     200     192     191     
140     141     133     132     200     201     193     192     
141     142     134     133     201     202     194     193     
142     143     135     134     202     203     195     194     
143     144     136     135     203     204     196     195     
147     146     137     138     207     206     197     198     
146     148     139     137     206     208     199     197     
148     149     140     139     208     209     200     199     
149     150     141     140     209     210     201     200     
150     151     142     141     210     211     202     201     
151     152     143     142     211     212     203     202     
152     153     144     143     212     213     204     203     
153     154     145     144     213     214     205     204     
155     156     85     83     163     164     101     99     
156     155     146     147     216     215     206     207     
155     157     148     146     215     217     208     206     
157     158     149     148     217     218     209     208     
158     159     150     149     218     219     210     209     
159     160     151     150     219     220     211     210     
160     161     152     151     220     221     212     211     
161     162     153     152     221     222     213     212     
164     163     155     156     224     223     215     216     
163     165     157     155     223     225     217     215     
165     166     158     157     225     226     218     217     
166     167     159     158     226     227     219     218     
167     168     160     159     227     228     220     219     
168     169     161     160     228     229     221     220     
170     171     169     168     231     232     229     228     
184     183     174     175     245     244     239     240     
183     185     178     174     244     246     241     239     
181     187     125     120     182     188     126     127     
187     188     182     181     248     249     242     243     
190     189     183     184     251     250     244     245     
189     191     185     183     250     252     246     244     
191     192     186     185     252     253     247     246     
192     193     187     186     253     254     248     247     
193     194     188     187     254     255     249     248     
198     197     189     190     260     259     250     251     
197     199     191     189     259     261     252     250     
199     200     192     191     261     262     253     252     
200     201     193     192     262     263     254     253     
201     202     194     193     263     264     255     254     
202     203     195     194     264     265     256     255     
203     204     196     195     265     266     258     256     
207     206     197     198     270     269     259     260     
206     208     199     197     269     271     261     259     
208     209     200     199     271     272     262     261     
209     210     201     200     272     273     263     262     
210     211     202     201     273     274     264     263     
211     212     203     202     274     275     265     264     
212     213     204     203     275     276     266     265     
213     214     205     204     276     277     267     266     
216     215     206     207     279     278     269     270     
215     217     208     206     278     280     271     269     
217     218     209     208     280     281     272     271     
218     219     210     209     281     282     273     272     
219     220     211     210     282     283     274     273     
220     221     212     211     283     284     275     274     
221     222     213     212     284     285     276     275     
224     223     215     216     287     286     278     279     
228     229     221     220     288     289     284     283     
232     231     170     171     235     234     172     173     
231     232     229     228     291     292     289     288     
236     239     174     176     238     241     178     179     
176     174     239     236     177     175     240     237     
240     239     236     237     305     304     300     301     
239     241     238     236     304     306     302     300     
245     244     239     240     309     308     304     305     
244     246     241     239     308     310     306     304     
251     250     244     245     316     315     308     309     
250     252     246     244     315     317     310     308     
252     253     247     246     317     318     311     310     
253     254     248     247     318     319     312     311     
254     255     249     248     319     320     313     312     
260     259     250     251     325     324     315     316     
259     261     252     250     324     326     317     315     
261     262     253     252     326     327     318     317     
262     263     254     253     327     328     319     318     
263     264     255     254     328     329     320     319     
264     265     256     255     329     330     321     320     
265     266     258     256     330     331     322     321     
270     269     259     260     334     333     324     325     
269     271     261     259     333     335     326     324     
271     272     262     261     335     336     327     326     
272     273     263     262     336     337     328     327     
273     274     264     263     337     338     329     328     
274     275     265     264     338     339     330     329     
275     276     266     265     339     340     331     330     
276     277     267     266     340     341     332     331     
279     278     269     270     343     342     333     334     
278     280     271     269     342     344     335     333     
280     281     272     271     344     345     336     335     
281     282     273     272     345     346     337     336     
282     283     274     273     346     347     338     337     
283     284     275     274     347     348     339     338     
285     284     221     222     290     289     229     230     
284     285     276     275     348     349     340     339     
287     286     278     279     351     350     342     343     
288     289     284     283     354     355     348     347     
290     289     229     230     293     292     232     233     
289     290     285     284     355     356     349     348     
291     292     289     288     357     358     355     354     
292     293     290     289     358     359     356     355     
305     304     300     301     371     370     366     367     
304     306     302     300     370     372     368     366     
309     308     304     305     375     374     370     371     
308     310     306     304     374     376     372     370     