Title = " tecplot file for 2D Cavity problem " 
variables = "x", "y", "z", "velX", "cellCentroidY" 
Zone T = "nmesh0" N = 396 E = 250 DATAPACKING = BLOCK, VARLOCATION = ([4-5]=CELLCENTERED), ZONETYPE=FEBRICK
0.45    0.45    0.5    0.5    0.45    
0.5    0.45    0.5    0.45    0.5    
0.45    0.5    0.45    0.5    0.45    
0.5    0.45    0.5    0.45    0.5    
0.45    0.5    0.45    0.5    0.45    
0.5    0.45    0.5    0.45    0.5    
0.45    0.5    0.45    0.5    0.45    
0.5    0.45    0.5    0.45    0.5    
0.45    0.5    0.45    0.5    0.45    
0.5    0.45    0.5    0.45    0.5    
0.45    0.5    0.45    0.5    0.45    
0.5    0.45    0.5    0.45    0.5    
0.45    0.5    0.45    0.5    0.45    
0.5    0.45    0.5    0.45    0.5    
0.45    0.5    0.45    0.5    0.45    
0.5    0.45    0.5    0.45    0.5    
0.45    0.5    0.45    0.5    0.45    
0.5    0.45    0.5    0.45    0.5    
0.45    0.5    0.45    0.5    0.45    
0.5    0.45    0.5    0.45    0.5    
0.45    0.5    0.45    0.5    0.45    
0.5    0.45    0.5    0.45    0.5    
0.45    0.5    0.45    0.5    0.45    
0.5    0.45    0.5    0.45    0.5    
0.45    0.5    0.45    0.45    0.5    
0.45    0.5    0.45    0.5    0.45    
0.5    0.4    0.4    0.4    0.4    
0.4    0.4    0.4    0.4    0.4    
0.4    0.4    0.4    0.4    0.4    
0.4    0.4    0.4    0.4    0.4    
0.4    0.4    0.4    0.4    0.4    
0.4    0.4    0.4    0.4    0.4    
0.4    0.4    0.4    0.4    0.4    
0.4    0.4    0.4    0.4    0.4    
0.4    0.4    0.4    0.4    0.4    
0.4    0.4    0.4    0.4    0.4    
0.4    0.4    0.4    0.4    0.4    
0.4    0.4    0.4    0.4    0.4    
0.4    0.4    0.4    0.4    0.4    
0.4    0.4    0.35    0.35    0.35    
0.35    0.35    0.35    0.35    0.35    
0.35    0.35    0.35    0.35    0.35    
0.35    0.35    0.35    0.35    0.35    
0.35    0.35    0.35    0.35    0.35    
0.35    0.35    0.35    0.35    0.35    
0.35    0.35    0.35    0.35    0.35    
0.35    0.35    0.35    0.35    0.35    
0.35    0.35    0.35    0.35    0.35    
0.35    0.35    0.35    0.35    0.35    
0.35    0.35    0.35    0.35    0.35    
0.35    0.35    0.35    0.35    0.35    
0.35    0.35    0.35    0.35    0.35    
0.35    0.35    0.35    0.3    0.3    
0.3    0.3    0.3    0.3    0.3    
0.3    0.3    0.3    0.3    0.3    
0.3    0.3    0.3    0.3    0.3    
0.3    0.3    0.3    0.3    0.3    
0.3    0.3    0.3    0.3    0.3    
0.3    0.3    0.3    0.3    0.3    
0.3    0.3    0.3    0.3    0.3    
0.3    0.3    0.3    0.3    0.3    
0.3    0.3    0.3    0.3    0.3    
0.3    0.3    0.3    0.3    0.3    
0.3    0.3    0.3    0.3    0.3    
0.3    0.3    0.3    0.3    0.3    
0.3    0.3    0.3    0.3    0.25    
0.25    0.25    0.25    0.25    0.25    
0.25    0.25    0.25    0.25    0.25    
0.25    0.25    0.25    0.25    0.25    
0.25    0.25    0.25    0.25    0.25    
0.25    0.25    0.25    0.25    0.25    
0.25    0.25    0.25    0.25    0.25    
0.25    0.25    0.25    0.25    0.25    
0.25    0.25    0.25    0.25    0.25    
0.25    0.25    0.25    0.25    0.25    
0.25    0.25    0.25    0.25    0.25    
0.25    0.25    0.25    0.25    0.25    
0.25    0.25    0.25    0.25    0.25    
0.25    0.25    0.25    0.25    0.25    
0.5    
-0.45    -0.5    -0.5    -0.45    -0.4    
-0.4    -0.35    -0.35    -0.3    -0.3    
-0.25    -0.25    -0.45    -0.45    -0.5    
-0.5    -0.4    -0.4    -0.35    -0.35    
-0.3    -0.3    -0.25    -0.25    -0.45    
-0.45    -0.5    -0.5    -0.4    -0.4    
-0.35    -0.35    -0.3    -0.3    -0.25    
-0.25    -0.45    -0.45    -0.5    -0.5    
-0.4    -0.4    -0.35    -0.35    -0.3    
-0.3    -0.25    -0.25    -0.45    -0.45    
-0.5    -0.5    -0.4    -0.4    -0.35    
-0.35    -0.3    -0.3    -0.25    -0.25    
-0.45    -0.45    -0.5    -0.5    -0.4    
-0.4    -0.35    -0.35    -0.3    -0.3    
-0.25    -0.25    -0.45    -0.45    -0.5    
-0.5    -0.4    -0.4    -0.35    -0.35    
-0.3    -0.3    -0.25    -0.25    -0.45    
-0.45    -0.5    -0.5    -0.4    -0.4    
-0.35    -0.35    -0.3    -0.3    -0.25    
-0.25    -0.45    -0.45    -0.5    -0.5    
-0.4    -0.4    -0.35    -0.35    -0.3    
-0.3    -0.25    -0.25    -0.45    -0.45    
-0.5    -0.5    -0.4    -0.4    -0.35    
-0.35    -0.3    -0.3    -0.25    -0.25    
-0.45    -0.45    -0.5    -0.4    -0.4    
-0.35    -0.35    -0.3    -0.3    -0.25    
-0.25    -0.45    -0.5    -0.4    -0.35    
-0.3    -0.25    -0.45    -0.5    -0.4    
-0.35    -0.3    -0.25    -0.45    -0.5    
-0.4    -0.35    -0.3    -0.25    -0.45    
-0.5    -0.4    -0.35    -0.3    -0.25    
-0.45    -0.5    -0.4    -0.35    -0.3    
-0.25    -0.45    -0.5    -0.4    -0.35    
-0.3    -0.25    -0.45    -0.5    -0.4    
-0.35    -0.3    -0.25    -0.45    -0.5    
-0.4    -0.35    -0.3    -0.25    -0.45    
-0.5    -0.4    -0.35    -0.3    -0.25    
-0.45    -0.5    -0.4    -0.35    -0.3    
-0.25    -0.45    -0.5    -0.4    -0.35    
-0.3    -0.25    -0.45    -0.5    -0.4    
-0.35    -0.3    -0.25    -0.45    -0.5    
-0.4    -0.35    -0.3    -0.25    -0.45    
-0.5    -0.4    -0.35    -0.3    -0.25    
-0.45    -0.5    -0.4    -0.35    -0.3    
-0.25    -0.45    -0.5    -0.4    -0.35    
-0.3    -0.25    -0.45    -0.5    -0.4    
-0.35    -0.3    -0.25    -0.45    -0.5    
-0.4    -0.35    -0.3    -0.25    -0.45    
-0.5    -0.4    -0.35    -0.3    -0.25    
-0.45    -0.5    -0.4    -0.35    -0.3    
-0.25    -0.45    -0.5    -0.4    -0.35    
-0.3    -0.25    -0.45    -0.5    -0.4    
-0.35    -0.3    -0.25    -0.45    -0.5    
-0.4    -0.35    -0.3    -0.25    -0.45    
-0.5    -0.4    -0.35    -0.3    -0.25    
-0.45    -0.5    -0.4    -0.35    -0.3    
-0.25    -0.45    -0.5    -0.4    -0.35    
-0.3    -0.25    -0.45    -0.5    -0.4    
-0.35    -0.3    -0.25    -0.45    -0.5    
-0.4    -0.35    -0.3    -0.25    -0.45    
-0.5    -0.4    -0.35    -0.3    -0.25    
-0.45    -0.5    -0.4    -0.35    -0.3    
-0.25    -0.45    -0.5    -0.4    -0.35    
-0.3    -0.25    -0.45    -0.5    -0.4    
-0.35    -0.3    -0.25    -0.45    -0.5    
-0.4    -0.35    -0.3    -0.25    -0.45    
-0.5    -0.4    -0.35    -0.3    -0.25    
-0.45    -0.5    -0.4    -0.35    -0.3    
-0.25    -0.45    -0.5    -0.4    -0.35    
-0.3    -0.25    -0.45    -0.5    -0.4    
-0.35    -0.3    -0.25    -0.45    -0.5    
-0.4    -0.35    -0.3    -0.25    -0.45    
-0.5    -0.4    -0.35    -0.3    -0.25    
-0.45    -0.5    -0.4    -0.35    -0.3    
-0.25    -0.45    -0.5    -0.4    -0.35    
-0.3    -0.25    -0.45    -0.5    -0.4    
-0.35    -0.3    -0.25    -0.45    -0.5    
-0.4    -0.35    -0.3    -0.25    -0.45    
-0.5    -0.4    -0.35    -0.3    -0.25    
-0.5    
0.0    0.0    0.0    0.0    0.0    
0.0    0.0    0.0    0.0    0.0    
0.0    0.0    -0.05    -0.05    -0.05    
-0.05    -0.05    -0.05    -0.05    -0.05    
-0.05    -0.05    -0.05    -0.05    -0.1    
-0.1    -0.1    -0.1    -0.1    -0.1    
-0.1    -0.1    -0.1    -0.1    -0.1    
-0.1    -0.15    -0.15    -0.15    -0.15    
-0.15    -0.15    -0.15    -0.15    -0.15    
-0.15    -0.15    -0.15    -0.2    -0.2    
-0.2    -0.2    -0.2    -0.2    -0.2    
-0.2    -0.2    -0.2    -0.2    -0.2    
-0.25    -0.25    -0.25    -0.25    -0.25    
-0.25    -0.25    -0.25    -0.25    -0.25    
-0.25    -0.25    -0.3    -0.3    -0.3    
-0.3    -0.3    -0.3    -0.3    -0.3    
-0.3    -0.3    -0.3    -0.3    -0.35    
-0.35    -0.35    -0.35    -0.35    -0.35    
-0.35    -0.35    -0.35    -0.35    -0.35    
-0.35    -0.4    -0.4    -0.4    -0.4    
-0.4    -0.4    -0.4    -0.4    -0.4    
-0.4    -0.4    -0.4    -0.45    -0.45    
-0.45    -0.45    -0.45    -0.45    -0.45    
-0.45    -0.45    -0.45    -0.45    -0.45    
-0.5    -0.5    -0.5    -0.5    -0.5    
-0.5    -0.5    -0.5    -0.5    -0.5    
-0.5    0.0    0.0    0.0    0.0    
0.0    0.0    -0.05    -0.05    -0.05    
-0.05    -0.05    -0.05    -0.1    -0.1    
-0.1    -0.1    -0.1    -0.1    -0.15    
-0.15    -0.15    -0.15    -0.15    -0.15    
-0.2    -0.2    -0.2    -0.2    -0.2    
-0.2    -0.25    -0.25    -0.25    -0.25    
-0.25    -0.25    -0.3    -0.3    -0.3    
-0.3    -0.3    -0.3    -0.35    -0.35    
-0.35    -0.35    -0.35    -0.35    -0.4    
-0.4    -0.4    -0.4    -0.4    -0.4    
-0.45    -0.45    -0.45    -0.45    -0.45    
-0.45    -0.5    -0.5    -0.5    -0.5    
-0.5    -0.5    0.0    0.0    0.0    
0.0    0.0    0.0    -0.05    -0.05    
-0.05    -0.05    -0.05    -0.05    -0.1    
-0.1    -0.1    -0.1    -0.1    -0.1    
-0.15    -0.15    -0.15    -0.15    -0.15    
-0.15    -0.2    -0.2    -0.2    -0.2    
-0.2    -0.2    -0.25    -0.25    -0.25    
-0.25    -0.25    -0.25    -0.3    -0.3    
-0.3    -0.3    -0.3    -0.3    -0.35    
-0.35    -0.35    -0.35    -0.35    -0.35    
-0.4    -0.4    -0.4    -0.4    -0.4    
-0.4    -0.45    -0.45    -0.45    -0.45    
-0.45    -0.45    -0.5    -0.5    -0.5    
-0.5    -0.5    -0.5    0.0    0.0    
0.0    0.0    0.0    0.0    -0.05    
-0.05    -0.05    -0.05    -0.05    -0.05    
-0.1    -0.1    -0.1    -0.1    -0.1    
-0.1    -0.15    -0.15    -0.15    -0.15    
-0.15    -0.15    -0.2    -0.2    -0.2    
-0.2    -0.2    -0.2    -0.25    -0.25    
-0.25    -0.25    -0.25    -0.25    -0.3    
-0.3    -0.3    -0.3    -0.3    -0.3    
-0.35    -0.35    -0.35    -0.35    -0.35    
-0.35    -0.4    -0.4    -0.4    -0.4    
-0.4    -0.4    -0.45    -0.45    -0.45    
-0.45    -0.45    -0.45    -0.5    -0.5    
-0.5    -0.5    -0.5    -0.5    0.0    
0.0    0.0    0.0    -2.4651903288e-32    0.0    
-0.05    -0.05    -0.05    -0.05    -0.05    
-0.05    -0.1    -0.1    -0.1    -0.1    
-0.1    -0.1    -0.15    -0.15    -0.15    
-0.15    -0.15    -0.15    -0.2    -0.2    
-0.2    -0.2    -0.2    -0.2    -0.25    
-0.25    -0.25    -0.25    -0.25    -0.25    
-0.3    -0.3    -0.3    -0.3    -0.3    
-0.3    -0.35    -0.35    -0.35    -0.35    
-0.35    -0.35    -0.4    -0.4    -0.4    
-0.4    -0.4    -0.4    -0.45    -0.45    
-0.45    -0.45    -0.45    -0.45    -0.5    
-0.5    -0.5    -0.5    -0.5    -0.5    
-0.5    
399.589347121    399.86538544    399.868606954    399.599744007    399.292501887    
399.59915619    398.779039208    398.959684175    399.309335658    397.89664437    
398.573677655    398.984282378    396.907643129    398.607096658    395.761127126    
399.874990579    399.609323419    399.618597371    398.808206229    399.342713453    
397.946695696    399.033087858    396.980772293    398.673467378    395.860464965    
399.884414849    399.628305455    399.647307815    398.866013561    399.392037552    
398.045935727    399.105285564    397.125866234    398.77179775    396.057747505    
399.896691755    399.656328646    399.6847236    398.951381331    399.456370783    
398.192585251    399.199577913    397.340497878    398.900467906    396.350018313    
399.911561999    399.692833591    399.730063283    399.062631566    399.534401125    
398.383855289    399.314116493    397.620804643    399.057105091    396.732452854    
399.928692023    399.737048931    399.782316703    399.197439551    399.624414868    
398.615842453    399.446444824    397.961286501    399.238469865    397.197988723    
399.947674895    399.787982586    399.840245906    399.352800846    399.724291685    
398.883449738    399.593475505    398.354637038    399.440392691    397.736989804    
399.968036758    399.84442447    399.902403805    399.525034253    399.831533059    
399.180372453    399.751522662    398.791676669    399.657798141    398.337060081    
399.989249661    399.904965705    399.967173435    399.709837478    399.943330209    
399.499183051    399.916402121    399.261449807    399.884841433    398.983117129    
399.968036758    399.902403805    399.831533059    399.751522662    399.65779814    
399.344715972    398.001254323    396.557341949    394.939987699    393.066713927    
399.360401293    398.04900931    396.639279918    395.059681376    393.229257657    
399.391481975    398.14365526    396.801740182    395.29715615    393.552052817    
399.437365297    398.283421152    397.041803737    395.648427268    394.030238644    
399.497134239    398.465556038    397.354897048    396.107157423    394.655891633    
399.569524786    398.686250238    397.734622518    396.664329655    395.417426836    
399.652911835    398.940582246    398.17263077    397.30797469    396.299055752    
399.745313853    399.222524361    398.658599322    398.023065131    397.280488748    
399.84442447    399.525034252    399.180372453    398.791676668    398.337060079    
399.947674895    399.840245906    399.724291684    399.593475503    399.440392689    
399.106896212    397.27616519    395.309543461    393.108558139    390.562397725    
399.128278371    397.341258856    395.42121102    393.271634555    390.783767879    
399.170646522    397.470265391    395.64261031    393.595169019    391.223362678    
399.233191062    397.660765265    395.969751522    394.073709774    391.874519197    
399.314659959    397.909001991    396.396387287    394.698594284    392.726392271    
399.413328259    398.209776297    396.91378494    395.457509959    393.763150848    
399.526979373    398.556375425    397.510556104    396.334129798    394.963253414    
399.652911834    398.940582244    398.172630766    397.307974682    396.299055741    
399.787982586    399.352800844    398.883449734    398.354637031    397.736989793    
399.928692023    399.782316703    399.624414866    399.446444821    399.238469859    
398.89221774    396.621873117    394.184441028    391.459227277    388.311066831    
398.918745711    396.702623876    394.322939039    391.661419909    388.585409673    
398.97130885    396.862656146    394.597524726    392.062540657    389.130163272    
399.048900394    397.09896048    395.003232768    392.655797354    389.937008676    
399.149964161    397.406867107    395.53229394    393.430408987    390.992428139    
399.272357396    397.779916941    396.173857481    394.371070232    392.276726093    
399.413328256    398.209776291    396.913784928    395.457509937    393.763150816    
399.569524784    398.686250231    397.734622502    396.664329631    395.417426798    
399.737048929    399.197439547    398.615842443    397.961286482    397.197988694    
399.911561998    399.73006328    399.534401121    399.314116486    399.05710508    

-0.425    -0.475    -0.475    -0.475    -0.375    
-0.425    -0.425    -0.325    -0.375    -0.375    
-0.275    -0.325    -0.325    -0.275    -0.275    
-0.475    -0.475    -0.425    -0.425    -0.375    
-0.375    -0.325    -0.325    -0.275    -0.275    
-0.475    -0.475    -0.425    -0.425    -0.375    
-0.375    -0.325    -0.325    -0.275    -0.275    
-0.475    -0.475    -0.425    -0.425    -0.375    
-0.375    -0.325    -0.325    -0.275    -0.275    
-0.475    -0.475    -0.425    -0.425    -0.375    
-0.375    -0.325    -0.325    -0.275    -0.275    
-0.475    -0.475    -0.425    -0.425    -0.375    
-0.375    -0.325    -0.325    -0.275    -0.275    
-0.475    -0.475    -0.425    -0.425    -0.375    
-0.375    -0.325    -0.325    -0.275    -0.275    
-0.475    -0.475    -0.425    -0.425    -0.375    
-0.375    -0.325    -0.325    -0.275    -0.275    
-0.475    -0.475    -0.425    -0.425    -0.375    
-0.375    -0.325    -0.325    -0.275    -0.275    
-0.475    -0.425    -0.375    -0.325    -0.275    
-0.475    -0.425    -0.375    -0.325    -0.275    
-0.475    -0.425    -0.375    -0.325    -0.275    
-0.475    -0.425    -0.375    -0.325    -0.275    
-0.475    -0.425    -0.375    -0.325    -0.275    
-0.475    -0.425    -0.375    -0.325    -0.275    
-0.475    -0.425    -0.375    -0.325    -0.275    
-0.475    -0.425    -0.375    -0.325    -0.275    
-0.475    -0.425    -0.375    -0.325    -0.275    
-0.475    -0.425    -0.375    -0.325    -0.275    
-0.475    -0.425    -0.375    -0.325    -0.275    
-0.475    -0.425    -0.375    -0.325    -0.275    
-0.475    -0.425    -0.375    -0.325    -0.275    
-0.475    -0.425    -0.375    -0.325    -0.275    
-0.475    -0.425    -0.375    -0.325    -0.275    
-0.475    -0.425    -0.375    -0.325    -0.275    
-0.475    -0.425    -0.375    -0.325    -0.275    
-0.475    -0.425    -0.375    -0.325    -0.275    
-0.475    -0.425    -0.375    -0.325    -0.275    
-0.475    -0.425    -0.375    -0.325    -0.275    
-0.475    -0.425    -0.375    -0.325    -0.275    
-0.475    -0.425    -0.375    -0.325    -0.275    
-0.475    -0.425    -0.375    -0.325    -0.275    
-0.475    -0.425    -0.375    -0.325    -0.275    
-0.475    -0.425    -0.375    -0.325    -0.275    
-0.475    -0.425    -0.375    -0.325    -0.275    
-0.475    -0.425    -0.375    -0.325    -0.275    
-0.475    -0.425    -0.375    -0.325    -0.275    
-0.475    -0.425    -0.375    -0.325    -0.275    
-0.475    -0.425    -0.375    -0.325    -0.275    
-0.475    -0.425    -0.375    -0.325    -0.275    

1     13     14     4     5     17     18     6     
4     14     13     1     3     16     15     2     
13     15     16     14     25     27     28     26     
15     13     1     2     139     138     132     133     
5     17     18     6     7     19     20     8     
17     13     14     18     29     25     26     30     
13     17     5     1     138     140     134     132     
7     19     20     8     9     21     22     10     
19     17     18     20     31     29     30     32     
17     19     7     5     140     141     135     134     
9     21     22     10     11     23     24     12     
21     19     20     22     33     31     32     34     
19     21     9     7     141     142     136     135     
23     21     22     24     35     33     34     36     
21     23     11     9     142     143     137     136     
25     27     28     26     37     39     40     38     
27     25     13     15     145     144     138     139     
29     25     26     30     41     37     38     42     
25     29     17     13     144     146     140     138     
31     29     30     32     43     41     42     44     
29     31     19     17     146     147     141     140     
33     31     32     34     45     43     44     46     
31     33     21     19     147     148     142     141     
35     33     34     36     47     45     46     48     
33     35     23     21     148     149     143     142     
37     39     40     38     49     51     52     50     
39     37     25     27     151     150     144     145     
41     37     38     42     53     49     50     54     
37     41     29     25     150     152     146     144     
43     41     42     44     55     53     54     56     
41     43     31     29     152     153     147     146     
45     43     44     46     57     55     56     58     
43     45     33     31     153     154     148     147     
47     45     46     48     59     57     58     60     
45     47     35     33     154     155     149     148     
49     51     52     50     61     63     64     62     
51     49     37     39     157     156     150     151     
53     49     50     54     65     61     62     66     
49     53     41     37     156     158     152     150     
55     53     54     56     67     65     66     68     
53     55     43     41     158     159     153     152     
57     55     56     58     69     67     68     70     
55     57     45     43     159     160     154     153     
59     57     58     60     71     69     70     72     
57     59     47     45     160     161     155     154     
61     63     64     62     73     75     76     74     
63     61     49     51     163     162     156     157     
65     61     62     66     77     73     74     78     
61     65     53     49     162     164     158     156     
67     65     66     68     79     77     78     80     
65     67     55     53     164     165     159     158     
69     67     68     70     81     79     80     82     
67     69     57     55     165     166     160     159     
71     69     70     72     83     81     82     84     
69     71     59     57     166     167     161     160     
73     75     76     74     85     87     88     86     
75     73     61     63     169     168     162     163     
77     73     74     78     89     85     86     90     
73     77     65     61     168     170     164     162     
79     77     78     80     91     89     90     92     
77     79     67     65     170     171     165     164     
81     79     80     82     93     91     92     94     
79     81     69     67     171     172     166     165     
83     81     82     84     95     93     94     96     
81     83     71     69     172     173     167     166     
85     87     88     86     97     99     100     98     
87     85     73     75     175     174     168     169     
89     85     86     90     101     97     98     102     
85     89     77     73     174     176     170     168     
91     89     90     92     103     101     102     104     
89     91     79     77     176     177     171     170     
93     91     92     94     105     103     104     106     
91     93     81     79     177     178     172     171     
95     93     94     96     107     105     106     108     
93     95     83     81     178     179     173     172     
97     99     100     98     109     111     112     110     
99     97     85     87     181     180     174     175     
101     97     98     102     113     109     110     114     
97     101     89     85     180     182     176     174     
103     101     102     104     115     113     114     116     
101     103     91     89     182     183     177     176     
105     103     104     106     117     115     116     118     
103     105     93     91     183     184     178     177     
107     105     106     108     119     117     118     120     
105     107     95     93     184     185     179     178     
109     111     112     110     121     123     396     122     
111     109     97     99     187     186     180     181     
113     109     110     114     124     121     122     125     
109     113     101     97     186     188     182     180     
115     113     114     116     126     124     125     127     
113     115     103     101     188     189     183     182     
117     115     116     118     128     126     127     129     
115     117     105     103     189     190     184     183     
119     117     118     120     130     128     129     131     
117     119     107     105     190     191     185     184     
123     121     109     111     193     192     186     187     
121     124     113     109     192     194     188     186     
124     126     115     113     194     195     189     188     
126     128     117     115     195     196     190     189     
128     130     119     117     196     197     191     190     
139     138     132     133     205     204     198     199     
138     140     134     132     204     206     200     198     
140     141     135     134     206     207     201     200     
141     142     136     135     207     208     202     201     
142     143     137     136     208     209     203     202     
145     144     138     139     211     210     204     205     
144     146     140     138     210     212     206     204     
146     147     141     140     212     213     207     206     
147     148     142     141     213     214     208     207     
148     149     143     142     214     215     209     208     
151     150     144     145     217     216     210     211     
150     152     146     144     216     218     212     210     
152     153     147     146     218     219     213     212     
153     154     148     147     219     220     214     213     
154     155     149     148     220     221     215     214     
157     156     150     151     223     222     216     217     
156     158     152     150     222     224     218     216     
158     159     153     152     224     225     219     218     
159     160     154     153     225     226     220     219     
160     161     155     154     226     227     221     220     
163     162     156     157     229     228     222     223     
162     164     158     156     228     230     224     222     
164     165     159     158     230     231     225     224     
165     166     160     159     231     232     226     225     
166     167     161     160     232     233     227     226     
169     168     162     163     235     234     228     229     
168     170     164     162     234     236     230     228     
170     171     165     164     236     237     231     230     
171     172     166     165     237     238     232     231     
172     173     167     166     238     239     233     232     
175     174     168     169     241     240     234     235     
174     176     170     168     240     242     236     234     
176     177     171     170     242     243     237     236     
177     178     172     171     243     244     238     237     
178     179     173     172     244     245     239     238     
181     180     174     175     247     246     240     241     
180     182     176     174     246     248     242     240     
182     183     177     176     248     249     243     242     
183     184     178     177     249     250     244     243     
184     185     179     178     250     251     245     244     
187     186     180     181     253     252     246     247     
186     188     182     180     252     254     248     246     
188     189     183     182     254     255     249     248     
189     190     184     183     255     256     250     249     
190     191     185     184     256     257     251     250     
193     192     186     187     259     258     252     253     
192     194     188     186     258     260     254     252     
194     195     189     188     260     261     255     254     
195     196     190     189     261     262     256     255     
196     197     191     190     262     263     257     256     
205     204     198     199     271     270     264     265     
204     206     200     198     270     272     266     264     
206     207     201     200     272     273     267     266     
207     208     202     201     273     274     268     267     
208     209     203     202     274     275     269     268     
211     210     204     205     277     276     270     271     
210     212     206     204     276     278     272     270     
212     213     207     206     278     279     273     272     
213     214     208     207     279     280     274     273     
214     215     209     208     280     281     275     274     
217     216     210     211     283     282     276     277     
216     218     212     210     282     284     278     276     
218     219     213     212     284     285     279     278     
219     220     214     213     285     286     280     279     
220     221     215     214     286     287     281     280     
223     222     216     217     289     288     282     283     
222     224     218     216     288     290     284     282     
224     225     219     218     290     291     285     284     
225     226     220     219     291     292     286     285     
226     227     221     220     292     293     287     286     
229     228     222     223     295     294     288     289     
228     230     224     222     294     296     290     288     
230     231     225     224     296     297     291     290     
231     232     226     225     297     298     292     291     
232     233     227     226     298     299     293     292     
235     234     228     229     301     300     294     295     
234     236     230     228     300     302     296     294     
236     237     231     230     302     303     297     296     
237     238     232     231     303     304     298     297     
238     239     233     232     304     305     299     298     
241     240     234     235     307     306     300     301     
240     242     236     234     306     308     302     300     
242     243     237     236     308     309     303     302     
243     244     238     237     309     310     304     303     
244     245     239     238     310     311     305     304     
247     246     240     241     313     312     306     307     
246     248     242     240     312     314     308     306     
248     249     243     242     314     315     309     308     
249     250     244     243     315     316     310     309     
250     251     245     244     316     317     311     310     
253     252     246     247     319     318     312     313     
252     254     248     246     318     320     314     312     
254     255     249     248     320     321     315     314     
255     256     250     249     321     322     316     315     
256     257     251     250     322     323     317     316     
259     258     252     253     325     324     318     319     
258     260     254     252     324     326     320     318     
260     261     255     254     326     327     321     320     
261     262     256     255     327     328     322     321     
262     263     257     256     328     329     323     322     
271     270     264     265     337     336     330     331     
270     272     266     264     336     338     332     330     
272     273     267     266     338     339     333     332     
273     274     268     267     339     340     334     333     
274     275     269     268     340     341     335     334     
277     276     270     271     343     342     336     337     
276     278     272     270     342     344     338     336     
278     279     273     272     344     345     339     338     