Title = " tecplot file for 2D Cavity problem " 
variables = "x", "y", "z", "velX", "cellCentroidY" 
Zone T = "nmesh0" N = 396 E = 250 DATAPACKING = BLOCK, VARLOCATION = ([4-5]=CELLCENTERED), ZONETYPE=FEBRICK
0.45    0.45    0.5    0.5    0.45    
0.5    0.45    0.5    0.45    0.5    
0.45    0.5    0.45    0.5    0.45    
0.5    0.45    0.5    0.45    0.5    
0.45    0.5    0.45    0.5    0.45    
0.5    0.45    0.5    0.45    0.5    
0.45    0.5    0.45    0.5    0.45    
0.5    0.45    0.5    0.45    0.5    
0.45    0.5    0.45    0.5    0.45    
0.5    0.45    0.5    0.45    0.5    
0.45    0.5    0.45    0.5    0.45    
0.5    0.45    0.5    0.45    0.5    
0.45    0.5    0.45    0.5    0.45    
0.5    0.45    0.5    0.45    0.5    
0.45    0.5    0.45    0.5    0.45    
0.5    0.45    0.5    0.45    0.5    
0.45    0.5    0.45    0.5    0.45    
0.5    0.45    0.5    0.45    0.5    
0.45    0.5    0.45    0.5    0.45    
0.5    0.45    0.5    0.45    0.5    
0.45    0.5    0.45    0.5    0.45    
0.5    0.45    0.5    0.45    0.5    
0.45    0.5    0.45    0.5    0.45    
0.5    0.45    0.5    0.45    0.5    
0.45    0.5    0.45    0.5    0.45    
0.5    0.45    0.5    0.45    0.5    
0.45    0.4    0.4    0.4    0.4    
0.4    0.4    0.4    0.4    0.4    
0.4    0.4    0.4    0.4    0.4    
0.4    0.4    0.4    0.4    0.4    
0.4    0.4    0.4    0.4    0.4    
0.4    0.4    0.4    0.4    0.4    
0.4    0.4    0.4    0.4    0.4    
0.4    0.4    0.4    0.4    0.4    
0.4    0.4    0.4    0.4    0.4    
0.4    0.4    0.4    0.4    0.4    
0.4    0.4    0.4    0.4    0.4    
0.4    0.4    0.4    0.4    0.4    
0.4    0.4    0.4    0.4    0.4    
0.4    0.4    0.35    0.35    0.35    
0.35    0.35    0.35    0.35    0.35    
0.35    0.35    0.35    0.35    0.35    
0.35    0.35    0.35    0.35    0.35    
0.35    0.35    0.35    0.35    0.35    
0.35    0.35    0.35    0.35    0.35    
0.35    0.35    0.35    0.35    0.35    
0.35    0.35    0.35    0.35    0.35    
0.35    0.35    0.35    0.35    0.35    
0.35    0.35    0.35    0.35    0.35    
0.35    0.35    0.35    0.35    0.35    
0.35    0.35    0.35    0.35    0.35    
0.35    0.35    0.35    0.35    0.35    
0.35    0.35    0.35    0.3    0.3    
0.3    0.3    0.3    0.3    0.3    
0.3    0.3    0.3    0.3    0.3    
0.3    0.3    0.3    0.3    0.3    
0.3    0.3    0.3    0.3    0.3    
0.3    0.3    0.3    0.3    0.3    
0.3    0.3    0.3    0.3    0.3    
0.3    0.3    0.3    0.3    0.3    
0.3    0.3    0.3    0.3    0.3    
0.3    0.3    0.3    0.3    0.3    
0.3    0.3    0.3    0.3    0.3    
0.3    0.3    0.3    0.3    0.3    
0.3    0.3    0.3    0.3    0.3    
0.3    0.3    0.3    0.3    0.25    
0.25    0.25    0.25    0.25    0.25    
0.25    0.25    0.25    0.25    0.25    
0.25    0.25    0.25    0.25    0.25    
0.25    0.25    0.25    0.25    0.25    
0.25    0.25    0.25    0.25    0.25    
0.25    0.25    0.25    0.25    0.25    
0.25    0.25    0.25    0.25    0.25    
0.25    0.25    0.25    0.25    0.25    
0.25    0.25    0.25    0.25    0.25    
0.25    0.25    0.25    0.25    0.25    
0.25    0.25    0.25    0.25    0.25    
0.25    0.25    0.25    0.25    0.25    
0.25    0.25    0.25    0.25    0.25    
0.5    
0.05    0.0    0.0    0.05    0.1    
0.1    0.15    0.15    0.2    0.2    
0.25    0.25    0.3    0.3    0.35    
0.35    0.4    0.4    0.45    0.45    
0.5    0.5    0.0    0.0    0.05    
0.05    0.1    0.1    0.15    0.15    
0.2    0.2    0.25    0.25    0.3    
0.3    0.35    0.35    0.4    0.4    
0.45    0.45    0.5    0.5    0.0    
0.0    0.05    0.05    0.1    0.1    
0.15    0.15    0.2    0.2    0.25    
0.25    0.3    0.3    0.35    0.35    
0.4    0.4    0.45    0.45    0.5    
0.5    0.0    0.0    0.05    0.05    
0.1    0.1    0.15    0.15    0.2    
0.2    0.25    0.25    0.3    0.3    
0.35    0.35    0.4    0.4    0.45    
0.45    0.5    0.5    0.0    0.0    
0.05    0.05    0.1    0.1    0.15    
0.15    0.2    0.2    0.25    0.25    
0.3    0.3    0.35    0.35    0.4    
0.4    0.45    0.45    0.5    0.5    
-1.0408340856e-17    0.0    0.05    0.05    0.1    
0.1    0.15    0.15    0.2    0.2    
0.25    0.25    0.3    0.3    0.35    
0.35    0.4    0.4    0.45    0.45    
0.5    0.05    0.0    0.1    0.15    
0.2    0.25    0.3    0.35    0.4    
0.45    0.5    0.0    0.05    0.1    
0.15    0.2    0.25    0.3    0.35    
0.4    0.45    0.5    0.0    0.05    
0.1    0.15    0.2    0.25    0.3    
0.35    0.4    0.45    0.5    0.0    
0.05    0.1    0.15    0.2    0.25    
0.3    0.35    0.4    0.45    0.5    
0.0    0.05    0.1    0.15    0.2    
0.25    0.3    0.35    0.4    0.45    
0.5    -6.9388939039e-18    0.05    0.1    0.15    
0.2    0.25    0.3    0.35    0.4    
0.45    0.5    0.05    0.0    0.1    
0.15    0.2    0.25    0.3    0.35    
0.4    0.45    0.5    0.0    0.05    
0.1    0.15    0.2    0.25    0.3    
0.35    0.4    0.45    0.5    0.0    
0.05    0.1    0.15    0.2    0.25    
0.3    0.35    0.4    0.45    0.5    
0.0    0.05    0.1    0.15    0.2    
0.25    0.3    0.35    0.4    0.45    
0.5    0.0    0.05    0.1    0.15    
0.2    0.25    0.3    0.35    0.4    
0.45    0.5    -1.3877787808e-17    0.05    0.1    
0.15    0.2    0.25    0.3    0.35    
0.4    0.45    0.5    0.05    0.0    
0.1    0.15    0.2    0.25    0.3    
0.35    0.4    0.45    0.5    0.0    
0.05    0.1    0.15    0.2    0.25    
0.3    0.35    0.4    0.45    0.5    
0.0    0.05    0.1    0.15    0.2    
0.25    0.3    0.35    0.4    0.45    
0.5    0.0    0.05    0.1    0.15    
0.2    0.25    0.3    0.35    0.4    
0.45    0.5    0.0    0.05    0.1    
0.15    0.2    0.25    0.3    0.35    
0.4    0.45    0.5    -6.9388939039e-18    0.05    
0.1    0.15    0.2    0.25    0.3    
0.35    0.4    0.45    0.5    0.05    
0.0    0.1    0.15    0.2    0.25    
0.3    0.35    0.4    0.45    0.5    
0.0    0.05    0.1    0.15    0.2    
0.25    0.3    0.35    0.4    0.45    
0.5    0.0    0.05    0.1    0.15    
0.2    0.25    0.3    0.35    0.4    
0.45    0.5    0.0    0.05    0.1    
0.15    0.2    0.25    0.3    0.35    
0.4    0.45    0.5    0.0    0.05    
0.1    0.15    0.2    0.25    0.3    
0.35    0.4    0.45    0.5    6.9388939039e-18    
0.05    0.1    0.15    0.2    0.25    
0.3    0.35    0.4    0.45    0.5    
0.5    
-0.25    -0.25    -0.25    -0.25    -0.25    
-0.25    -0.25    -0.25    -0.25    -0.25    
-0.25    -0.25    -0.25    -0.25    -0.25    
-0.25    -0.25    -0.25    -0.25    -0.25    
-0.25    -0.25    -0.3    -0.3    -0.3    
-0.3    -0.3    -0.3    -0.3    -0.3    
-0.3    -0.3    -0.3    -0.3    -0.3    
-0.3    -0.3    -0.3    -0.3    -0.3    
-0.3    -0.3    -0.3    -0.3    -0.35    
-0.35    -0.35    -0.35    -0.35    -0.35    
-0.35    -0.35    -0.35    -0.35    -0.35    
-0.35    -0.35    -0.35    -0.35    -0.35    
-0.35    -0.35    -0.35    -0.35    -0.35    
-0.35    -0.4    -0.4    -0.4    -0.4    
-0.4    -0.4    -0.4    -0.4    -0.4    
-0.4    -0.4    -0.4    -0.4    -0.4    
-0.4    -0.4    -0.4    -0.4    -0.4    
-0.4    -0.4    -0.4    -0.45    -0.45    
-0.45    -0.45    -0.45    -0.45    -0.45    
-0.45    -0.45    -0.45    -0.45    -0.45    
-0.45    -0.45    -0.45    -0.45    -0.45    
-0.45    -0.45    -0.45    -0.45    -0.45    
-0.5    -0.5    -0.5    -0.5    -0.5    
-0.5    -0.5    -0.5    -0.5    -0.5    
-0.5    -0.5    -0.5    -0.5    -0.5    
-0.5    -0.5    -0.5    -0.5    -0.5    
-0.5    -0.25    -0.25    -0.25    -0.25    
-0.25    -0.25    -0.25    -0.25    -0.25    
-0.25    -0.25    -0.3    -0.3    -0.3    
-0.3    -0.3    -0.3    -0.3    -0.3    
-0.3    -0.3    -0.3    -0.35    -0.35    
-0.35    -0.35    -0.35    -0.35    -0.35    
-0.35    -0.35    -0.35    -0.35    -0.4    
-0.4    -0.4    -0.4    -0.4    -0.4    
-0.4    -0.4    -0.4    -0.4    -0.4    
-0.45    -0.45    -0.45    -0.45    -0.45    
-0.45    -0.45    -0.45    -0.45    -0.45    
-0.45    -0.5    -0.5    -0.5    -0.5    
-0.5    -0.5    -0.5    -0.5    -0.5    
-0.5    -0.5    -0.25    -0.25    -0.25    
-0.25    -0.25    -0.25    -0.25    -0.25    
-0.25    -0.25    -0.25    -0.3    -0.3    
-0.3    -0.3    -0.3    -0.3    -0.3    
-0.3    -0.3    -0.3    -0.3    -0.35    
-0.35    -0.35    -0.35    -0.35    -0.35    
-0.35    -0.35    -0.35    -0.35    -0.35    
-0.4    -0.4    -0.4    -0.4    -0.4    
-0.4    -0.4    -0.4    -0.4    -0.4    
-0.4    -0.45    -0.45    -0.45    -0.45    
-0.45    -0.45    -0.45    -0.45    -0.45    
-0.45    -0.45    -0.5    -0.5    -0.5    
-0.5    -0.5    -0.5    -0.5    -0.5    
-0.5    -0.5    -0.5    -0.25    -0.25    
-0.25    -0.25    -0.25    -0.25    -0.25    
-0.25    -0.25    -0.25    -0.25    -0.3    
-0.3    -0.3    -0.3    -0.3    -0.3    
-0.3    -0.3    -0.3    -0.3    -0.3    
-0.35    -0.35    -0.35    -0.35    -0.35    
-0.35    -0.35    -0.35    -0.35    -0.35    
-0.35    -0.4    -0.4    -0.4    -0.4    
-0.4    -0.4    -0.4    -0.4    -0.4    
-0.4    -0.4    -0.45    -0.45    -0.45    
-0.45    -0.45    -0.45    -0.45    -0.45    
-0.45    -0.45    -0.45    -0.5    -0.5    
-0.5    -0.5    -0.5    -0.5    -0.5    
-0.5    -0.5    -0.5    -0.5    -0.25    
-0.25    -0.25    -0.25    -0.25    -0.25    
-0.25    -0.25    -0.25    -0.25    -0.25    
-0.3    -0.3    -0.3    -0.3    -0.3    
-0.3    -0.3    -0.3    -0.3    -0.3    
-0.3    -0.35    -0.35    -0.35    -0.35    
-0.35    -0.35    -0.35    -0.35    -0.35    
-0.35    -0.35    -0.4    -0.4    -0.4    
-0.4    -0.4    -0.4    -0.4    -0.4    
-0.4    -0.4    -0.4    -0.45    -0.45    
-0.45    -0.45    -0.45    -0.45    -0.45    
-0.45    -0.45    -0.45    -0.45    -0.5    
-0.5    -0.5    -0.5    -0.5    -0.5    
-0.5    -0.5    -0.5    -0.5    -0.5    
-0.5    
394.178530278    395.520293703    396.326647645    386.754310476    392.352248725    
395.1951114    382.827557085    389.795814573    393.630953078    377.519346506    
386.082471074    391.396881186    370.168329281    380.403324139    388.067507201    
359.682366738    371.020983655    382.814113082    344.170959904    353.510574249    
373.827482752    320.190450475    314.140969499    356.502874734    281.156257817    
201.776918819    316.755400954    214.178638804    202.97998464    95.8716656659    
397.263636803    389.140847695    396.398520613    385.83112819    395.183887752    
381.28854249    393.411343749    374.872549704    390.690486249    365.488598819    
386.222703134    351.177774353    378.1815436    328.272864195    361.768131375    
289.658533808    322.203962624    221.460015184    206.192187645    99.1153697018    
398.309255305    391.912396995    397.763647493    389.383360843    396.987319185    
385.859077641    395.831790055    380.776360998    394.004147039    373.127702621    
390.862454233    361.010324776    384.807407198    340.645080738    371.228690517    
304.259848148    334.74054638    235.971472015    217.302410609    107.051143286    
399.427807334    395.003638692    399.24102128    393.409416071    398.973067923    
391.158841067    398.568883733    387.85083668    397.914421833    382.729876903    
396.738196848    374.264725413    394.266244489    359.112917547    387.776944666    
329.507803997    365.491931803    266.956829105    266.677417002    130.809133842    
398.309255305    397.763647493    396.987319184    395.831790055    394.00414704    
390.862454233    384.807407198    371.228690516    334.74054638    217.302410609    
378.537258332    372.291298498    363.944735216    352.578831678    336.769756608    
314.27767223    281.579664042    233.313150876    162.194263392    61.7224036024    
382.410971276    377.151349663    370.018199848    360.116585463    346.003692315    
325.309785351    294.137863052    246.299342775    173.080675828    66.4447791359    
386.904859663    382.889625562    377.363472692    369.536655602    358.07056798    
340.623962401    313.032986157    268.008066957    193.897033741    77.2698397982    
391.912396997    389.383360847    385.859077645    380.776361004    373.127702625    
361.010324778    340.645080738    304.259848149    235.971472016    107.051143287    
397.263636803    396.398520614    395.183887754    393.411343751    390.690486251    
386.222703135    378.1815436    361.768131375    322.203962625    206.192187645    
371.144881109    362.944907784    352.137111756    337.696478879    318.133221034    
291.303760274    254.2419874    203.23337736    134.72372083    48.1989880684    
376.36421942    369.466874645    360.244513579    347.689583653    330.266859679    
305.63774778    270.332535799    219.597766132    148.188620743    53.9251650214    
382.41097128    377.151349673    370.018199857    360.116585471    346.003692317    
325.309785354    294.137863051    246.299342775    173.080675829    66.4447791364    
389.140847698    385.831128201    381.288542503    374.872549713    365.488598825    
351.177774355    328.272864195    289.658533809    221.460015186    99.1153697022    
396.326647643    395.195111403    393.630953082    391.396881189    388.067507202    
382.814113083    373.827482752    356.502874734    316.755400955    202.97998464    
364.754694458    354.994942917    342.310145697    325.670055401    303.660057365    
274.389938307    235.495102288    184.435940676    119.48218358    41.8067834045    
371.144881095    362.944907786    352.137111753    337.69647887    318.133221015    
291.303760257    254.241987389    203.233377352    134.723720826    48.198988068    
378.537258319    372.291298502    363.944735222    352.578831676    336.769756594    
314.277672212    281.57966403    233.313150868    162.194263389    61.7224036013    
386.754310465    382.82755709    377.519346513    370.168329283    359.68236673    
344.170959892    320.190450467    281.156257812    214.178638802    95.8716656653    
395.520293694    394.178530275    392.352248724    389.795814572    386.08247107    
380.403324134    371.020983651    353.510574247    314.140969498    201.776918819    

0.075    0.025    0.025    0.025    0.125    
0.075    0.075    0.175    0.125    0.125    
0.225    0.175    0.175    0.275    0.225    
0.225    0.325    0.275    0.275    0.375    
0.325    0.325    0.425    0.375    0.375    
0.475    0.425    0.425    0.475    0.475    
0.025    0.025    0.075    0.075    0.125    
0.125    0.175    0.175    0.225    0.225    
0.275    0.275    0.325    0.325    0.375    
0.375    0.425    0.425    0.475    0.475    
0.025    0.025    0.075    0.075    0.125    
0.125    0.175    0.175    0.225    0.225    
0.275    0.275    0.325    0.325    0.375    
0.375    0.425    0.425    0.475    0.475    
0.025    0.025    0.075    0.075    0.125    
0.125    0.175    0.175    0.225    0.225    
0.275    0.275    0.325    0.325    0.375    
0.375    0.425    0.425    0.475    0.475    
0.025    0.075    0.125    0.175    0.225    
0.275    0.325    0.375    0.425    0.475    
0.025    0.075    0.125    0.175    0.225    
0.275    0.325    0.375    0.425    0.475    
0.025    0.075    0.125    0.175    0.225    
0.275    0.325    0.375    0.425    0.475    
0.025    0.075    0.125    0.175    0.225    
0.275    0.325    0.375    0.425    0.475    
0.025    0.075    0.125    0.175    0.225    
0.275    0.325    0.375    0.425    0.475    
0.025    0.075    0.125    0.175    0.225    
0.275    0.325    0.375    0.425    0.475    
0.025    0.075    0.125    0.175    0.225    
0.275    0.325    0.375    0.425    0.475    
0.025    0.075    0.125    0.175    0.225    
0.275    0.325    0.375    0.425    0.475    
0.025    0.075    0.125    0.175    0.225    
0.275    0.325    0.375    0.425    0.475    
0.025    0.075    0.125    0.175    0.225    
0.275    0.325    0.375    0.425    0.475    
0.025    0.075    0.125    0.175    0.225    
0.275    0.325    0.375    0.425    0.475    
0.025    0.075    0.125    0.175    0.225    
0.275    0.325    0.375    0.425    0.475    
0.025    0.075    0.125    0.175    0.225    
0.275    0.325    0.375    0.425    0.475    
0.025    0.075    0.125    0.175    0.225    
0.275    0.325    0.375    0.425    0.475    
0.025    0.075    0.125    0.175    0.225    
0.275    0.325    0.375    0.425    0.475    
0.025    0.075    0.125    0.175    0.225    
0.275    0.325    0.375    0.425    0.475    

1     25     26     4     5     27     28     6     
4     26     25     1     3     24     23     2     
25     23     24     26     47     45     46     48     
23     25     1     2     143     144     132     133     
5     27     28     6     7     29     30     8     
27     25     26     28     49     47     48     50     
25     27     5     1     144     145     134     132     
7     29     30     8     9     31     32     10     
29     27     28     30     51     49     50     52     
27     29     7     5     145     146     135     134     
9     31     32     10     11     33     34     12     
31     29     30     32     53     51     52     54     
29     31     9     7     146     147     136     135     
11     33     34     12     13     35     36     14     
33     31     32     34     55     53     54     56     
31     33     11     9     147     148     137     136     
13     35     36     14     15     37     38     16     
35     33     34     36     57     55     56     58     
33     35     13     11     148     149     138     137     
15     37     38     16     17     39     40     18     
37     35     36     38     59     57     58     60     
35     37     15     13     149     150     139     138     
17     39     40     18     19     41     42     20     
39     37     38     40     61     59     60     62     
37     39     17     15     150     151     140     139     
19     41     42     20     21     43     44     22     
41     39     40     42     63     61     62     64     
39     41     19     17     151     152     141     140     
43     41     42     44     65     63     64     66     
41     43     21     19     152     153     142     141     
47     45     46     48     69     67     68     70     
45     47     25     23     154     155     144     143     
49     47     48     50     71     69     70     72     
47     49     27     25     155     156     145     144     
51     49     50     52     73     71     72     74     
49     51     29     27     156     157     146     145     
53     51     52     54     75     73     74     76     
51     53     31     29     157     158     147     146     
55     53     54     56     77     75     76     78     
53     55     33     31     158     159     148     147     
57     55     56     58     79     77     78     80     
55     57     35     33     159     160     149     148     
59     57     58     60     81     79     80     82     
57     59     37     35     160     161     150     149     
61     59     60     62     83     81     82     84     
59     61     39     37     161     162     151     150     
63     61     62     64     85     83     84     86     
61     63     41     39     162     163     152     151     
65     63     64     66     87     85     86     88     
63     65     43     41     163     164     153     152     
69     67     68     70     91     89     90     92     
67     69     47     45     165     166     155     154     
71     69     70     72     93     91     92     94     
69     71     49     47     166     167     156     155     
73     71     72     74     95     93     94     96     
71     73     51     49     167     168     157     156     
75     73     74     76     97     95     96     98     
73     75     53     51     168     169     158     157     
77     75     76     78     99     97     98     100     
75     77     55     53     169     170     159     158     
79     77     78     80     101     99     100     102     
77     79     57     55     170     171     160     159     
81     79     80     82     103     101     102     104     
79     81     59     57     171     172     161     160     
83     81     82     84     105     103     104     106     
81     83     61     59     172     173     162     161     
85     83     84     86     107     105     106     108     
83     85     63     61     173     174     163     162     
87     85     86     88     109     107     108     110     
85     87     65     63     174     175     164     163     
91     89     90     92     113     111     112     114     
89     91     69     67     176     177     166     165     
93     91     92     94     115     113     114     116     
91     93     71     69     177     178     167     166     
95     93     94     96     117     115     116     118     
93     95     73     71     178     179     168     167     
97     95     96     98     119     117     118     120     
95     97     75     73     179     180     169     168     
99     97     98     100     121     119     120     122     
97     99     77     75     180     181     170     169     
101     99     100     102     123     121     122     124     
99     101     79     77     181     182     171     170     
103     101     102     104     125     123     124     126     
101     103     81     79     182     183     172     171     
105     103     104     106     127     125     126     128     
103     105     83     81     183     184     173     172     
107     105     106     108     129     127     128     130     
105     107     85     83     184     185     174     173     
109     107     108     110     131     129     130     396     
107     109     87     85     185     186     175     174     
111     113     91     89     187     188     177     176     
113     115     93     91     188     189     178     177     
115     117     95     93     189     190     179     178     
117     119     97     95     190     191     180     179     
119     121     99     97     191     192     181     180     
121     123     101     99     192     193     182     181     
123     125     103     101     193     194     183     182     
125     127     105     103     194     195     184     183     
127     129     107     105     195     196     185     184     
129     131     109     107     196     197     186     185     
143     144     132     133     209     210     198     199     
144     145     134     132     210     211     200     198     
145     146     135     134     211     212     201     200     
146     147     136     135     212     213     202     201     
147     148     137     136     213     214     203     202     
148     149     138     137     214     215     204     203     
149     150     139     138     215     216     205     204     
150     151     140     139     216     217     206     205     
151     152     141     140     217     218     207     206     
152     153     142     141     218     219     208     207     
154     155     144     143     220     221     210     209     
155     156     145     144     221     222     211     210     
156     157     146     145     222     223     212     211     
157     158     147     146     223     224     213     212     
158     159     148     147     224     225     214     213     
159     160     149     148     225     226     215     214     
160     161     150     149     226     227     216     215     
161     162     151     150     227     228     217     216     
162     163     152     151     228     229     218     217     
163     164     153     152     229     230     219     218     
165     166     155     154     231     232     221     220     
166     167     156     155     232     233     222     221     
167     168     157     156     233     234     223     222     
168     169     158     157     234     235     224     223     
169     170     159     158     235     236     225     224     
170     171     160     159     236     237     226     225     
171     172     161     160     237     238     227     226     
172     173     162     161     238     239     228     227     
173     174     163     162     239     240     229     228     
174     175     164     163     240     241     230     229     
176     177     166     165     242     243     232     231     
177     178     167     166     243     244     233     232     
178     179     168     167     244     245     234     233     
179     180     169     168     245     246     235     234     
180     181     170     169     246     247     236     235     
181     182     171     170     247     248     237     236     
182     183     172     171     248     249     238     237     
183     184     173     172     249     250     239     238     
184     185     174     173     250     251     240     239     
185     186     175     174     251     252     241     240     
187     188     177     176     253     254     243     242     
188     189     178     177     254     255     244     243     
189     190     179     178     255     256     245     244     
190     191     180     179     256     257     246     245     
191     192     181     180     257     258     247     246     
192     193     182     181     258     259     248     247     
193     194     183     182     259     260     249     248     
194     195     184     183     260     261     250     249     
195     196     185     184     261     262     251     250     
196     197     186     185     262     263     252     251     
209     210     198     199     275     276     264     265     
210     211     200     198     276     277     266     264     
211     212     201     200     277     278     267     266     
212     213     202     201     278     279     268     267     
213     214     203     202     279     280     269     268     
214     215     204     203     280     281     270     269     
215     216     205     204     281     282     271     270     
216     217     206     205     282     283     272     271     
217     218     207     206     283     284     273     272     
218     219     208     207     284     285     274     273     
220     221     210     209     286     287     276     275     
221     222     211     210     287     288     277     276     
222     223     212     211     288     289     278     277     
223     224     213     212     289     290     279     278     
224     225     214     213     290     291     280     279     
225     226     215     214     291     292     281     280     
226     227     216     215     292     293     282     281     
227     228     217     216     293     294     283     282     
228     229     218     217     294     295     284     283     
229     230     219     218     295     296     285     284     
231     232     221     220     297     298     287     286     
232     233     222     221     298     299     288     287     
233     234     223     222     299     300     289     288     
234     235     224     223     300     301     290     289     
235     236     225     224     301     302     291     290     
236     237     226     225     302     303     292     291     
237     238     227     226     303     304     293     292     
238     239     228     227     304     305     294     293     
239     240     229     228     305     306     295     294     
240     241     230     229     306     307     296     295     
242     243     232     231     308     309     298     297     
243     244     233     232     309     310     299     298     
244     245     234     233     310     311     300     299     
245     246     235     234     311     312     301     300     
246     247     236     235     312     313     302     301     
247     248     237     236     313     314     303     302     
248     249     238     237     314     315     304     303     
249     250     239     238     315     316     305     304     
250     251     240     239     316     317     306     305     
251     252     241     240     317     318     307     306     
253     254     243     242     319     320     309     308     
254     255     244     243     320     321     310     309     
255     256     245     244     321     322     311     310     
256     257     246     245     322     323     312     311     
257     258     247     246     323     324     313     312     
258     259     248     247     324     325     314     313     
259     260     249     248     325     326     315     314     
260     261     250     249     326     327     316     315     
261     262     251     250     327     328     317     316     
262     263     252     251     328     329     318     317     
275     276     264     265     341     342     330     331     
276     277     266     264     342     343     332     330     
277     278     267     266     343     344     333     332     
278     279     268     267     344     345     334     333     
279     280     269     268     345     346     335     334     
280     281     270     269     346     347     336     335     
281     282     271     270     347     348     337     336     
282     283     272     271     348     349     338     337     
283     284     273     272     349     350     339     338     
284     285     274     273     350     351     340     339     
286     287     276     275     352     353     342     341     
287     288     277     276     353     354     343     342     
288     289     278     277     354     355     344     343     
289     290     279     278     355     356     345     344     
290     291     280     279     356     357     346     345     
291     292     281     280     357     358     347     346     
292     293     282     281     358     359     348     347     