Title = " tecplot file for 2D Cavity problem " 
variables = "x", "y", "z", "velX", "cellCentroidY" 
Zone T = "nmesh0" N = 396 E = 250 DATAPACKING = BLOCK, VARLOCATION = ([4-5]=CELLCENTERED), ZONETYPE=FEBRICK
0.45    0.45    0.5    0.5    0.45    
0.5    0.45    0.5    0.45    0.5    
0.45    0.5    0.45    0.5    0.45    
0.5    0.45    0.5    0.45    0.5    
0.45    0.5    0.45    0.5    0.45    
0.5    0.45    0.5    0.45    0.5    
0.45    0.5    0.45    0.5    0.45    
0.5    0.45    0.5    0.45    0.5    
0.45    0.5    0.45    0.5    0.45    
0.5    0.45    0.5    0.45    0.5    
0.45    0.5    0.45    0.5    0.45    
0.5    0.45    0.5    0.45    0.5    
0.45    0.5    0.45    0.5    0.45    
0.5    0.45    0.5    0.45    0.5    
0.45    0.5    0.45    0.5    0.45    
0.5    0.45    0.5    0.45    0.5    
0.45    0.5    0.45    0.5    0.45    
0.5    0.45    0.5    0.45    0.5    
0.45    0.5    0.45    0.5    0.45    
0.5    0.45    0.5    0.45    0.5    
0.45    0.5    0.45    0.5    0.45    
0.5    0.45    0.5    0.45    0.5    
0.45    0.5    0.45    0.5    0.45    
0.5    0.45    0.5    0.45    0.5    
0.45    0.5    0.45    0.5    0.45    
0.5    0.45    0.5    0.45    0.5    
0.45    0.5    0.4    0.4    0.4    
0.4    0.4    0.4    0.4    0.4    
0.4    0.4    0.4    0.4    0.4    
0.4    0.4    0.4    0.4    0.4    
0.4    0.4    0.4    0.4    0.4    
0.4    0.4    0.4    0.4    0.4    
0.4    0.4    0.4    0.4    0.4    
0.4    0.4    0.4    0.4    0.4    
0.4    0.4    0.4    0.4    0.4    
0.4    0.4    0.4    0.4    0.4    
0.4    0.4    0.4    0.4    0.4    
0.4    0.4    0.4    0.4    0.4    
0.4    0.4    0.4    0.4    0.4    
0.4    0.4    0.4    0.35    0.35    
0.35    0.35    0.35    0.35    0.35    
0.35    0.35    0.35    0.35    0.35    
0.35    0.35    0.35    0.35    0.35    
0.35    0.35    0.35    0.35    0.35    
0.35    0.35    0.35    0.35    0.35    
0.35    0.35    0.35    0.35    0.35    
0.35    0.35    0.35    0.35    0.35    
0.35    0.35    0.35    0.35    0.35    
0.35    0.35    0.35    0.35    0.35    
0.35    0.35    0.35    0.35    0.35    
0.35    0.35    0.35    0.35    0.35    
0.35    0.35    0.35    0.35    0.35    
0.35    0.35    0.35    0.35    0.3    
0.3    0.3    0.3    0.3    0.3    
0.3    0.3    0.3    0.3    0.3    
0.3    0.3    0.3    0.3    0.3    
0.3    0.3    0.3    0.3    0.3    
0.3    0.3    0.3    0.3    0.3    
0.3    0.3    0.3    0.3    0.3    
0.3    0.3    0.3    0.3    0.3    
0.3    0.3    0.3    0.3    0.3    
0.3    0.3    0.3    0.3    0.3    
0.3    0.3    0.3    0.3    0.3    
0.3    0.3    0.3    0.3    0.3    
0.3    0.3    0.3    0.3    0.3    
0.3    0.3    0.3    0.3    0.3    
0.25    0.25    0.25    0.25    0.25    
0.25    0.25    0.25    0.25    0.25    
0.25    0.25    0.25    0.25    0.25    
0.25    0.25    0.25    0.25    0.25    
0.25    0.25    0.25    0.25    0.25    
0.25    0.25    0.25    0.25    0.25    
0.25    0.25    0.25    0.25    0.25    
0.25    0.25    0.25    0.25    0.25    
0.25    0.25    0.25    0.25    0.25    
0.25    0.25    0.25    0.25    0.25    
0.25    0.25    0.25    0.25    0.25    
0.25    0.25    0.25    0.25    0.25    
0.25    0.25    0.25    0.25    0.25    
0.25    
-0.2    -0.25    -0.25    -0.2    -0.15    
-0.15    -0.1    -0.1    -0.05    -0.05    
0.0    0.0    -0.25    -0.25    -0.2    
-0.2    -0.15    -0.15    -0.1    -0.1    
-0.05    -0.05    0.0    0.0    -0.25    
-0.25    -0.2    -0.2    -0.15    -0.15    
-0.1    -0.1    -0.05    -0.05    0.0    
0.0    -0.25    -0.25    -0.2    -0.2    
-0.15    -0.15    -0.1    -0.1    -0.05    
-0.05    0.0    0.0    -0.25    -0.25    
-0.2    -0.2    -0.15    -0.15    -0.1    
-0.1    -0.05    -0.05    -2.4980018054e-17    -2.7755575616e-17    
-0.25    -0.25    -0.2    -0.2    -0.15    
-0.15    -0.1    -0.1    -0.05    -0.05    
0.0    0.0    -0.25    -0.25    -0.2    
-0.2    -0.15    -0.15    -0.1    -0.1    
-0.05    -0.05    0.0    0.0    -0.25    
-0.25    -0.2    -0.2    -0.15    -0.15    
-0.1    -0.1    -0.05    -0.05    0.0    
0.0    -0.25    -0.25    -0.2    -0.2    
-0.15    -0.15    -0.1    -0.1    -0.05    
-0.05    0.0    0.0    -0.25    -0.25    
-0.2    -0.2    -0.15    -0.15    -0.1    
-0.1    -0.05    -0.05    0.0    0.0    
-0.25    -0.25    -0.2    -0.2    -0.15    
-0.15    -0.1    -0.1    -0.05    -0.05    
-1.0408340856e-17    0.0    -0.2    -0.25    -0.15    
-0.1    -0.05    0.0    -0.25    -0.2    
-0.15    -0.1    -0.05    0.0    -0.25    
-0.2    -0.15    -0.1    -0.05    0.0    
-0.25    -0.2    -0.15    -0.1    -0.05    
0.0    -0.25    -0.2    -0.15    -0.1    
-0.05    -2.2204460493e-17    -0.25    -0.2    -0.15    
-0.1    -0.05    0.0    -0.25    -0.2    
-0.15    -0.1    -0.05    0.0    -0.25    
-0.2    -0.15    -0.1    -0.05    0.0    
-0.25    -0.2    -0.15    -0.1    -0.05    
0.0    -0.25    -0.2    -0.15    -0.1    
-0.05    0.0    -0.25    -0.2    -0.15    
-0.1    -0.05    -6.9388939039e-18    -0.2    -0.25    
-0.15    -0.1    -0.05    0.0    -0.25    
-0.2    -0.15    -0.1    -0.05    0.0    
-0.25    -0.2    -0.15    -0.1    -0.05    
0.0    -0.25    -0.2    -0.15    -0.1    
-0.05    0.0    -0.25    -0.2    -0.15    
-0.1    -0.05    -1.9428902931e-17    -0.25    -0.2    
-0.15    -0.1    -0.05    0.0    -0.25    
-0.2    -0.15    -0.1    -0.05    0.0    
-0.25    -0.2    -0.15    -0.1    -0.05    
0.0    -0.25    -0.2    -0.15    -0.1    
-0.05    0.0    -0.25    -0.2    -0.15    
-0.1    -0.05    0.0    -0.25    -0.2    
-0.15    -0.1    -0.05    -1.3877787808e-17    -0.2    
-0.25    -0.15    -0.1    -0.05    0.0    
-0.25    -0.2    -0.15    -0.1    -0.05    
0.0    -0.25    -0.2    -0.15    -0.1    
-0.05    0.0    -0.25    -0.2    -0.15    
-0.1    -0.05    0.0    -0.25    -0.2    
-0.15    -0.1    -0.05    -1.6653345369e-17    -0.25    
-0.2    -0.15    -0.1    -0.05    0.0    
-0.25    -0.2    -0.15    -0.1    -0.05    
0.0    -0.25    -0.2    -0.15    -0.1    
-0.05    0.0    -0.25    -0.2    -0.15    
-0.1    -0.05    0.0    -0.25    -0.2    
-0.15    -0.1    -0.05    0.0    -0.25    
-0.2    -0.15    -0.1    -0.05    -6.9388939039e-18    
-0.2    -0.25    -0.15    -0.1    -0.05    
0.0    -0.25    -0.2    -0.15    -0.1    
-0.05    0.0    -0.25    -0.2    -0.15    
-0.1    -0.05    0.0    -0.25    -0.2    
-0.15    -0.1    -0.05    0.0    -0.25    
-0.2    -0.15    -0.1    -0.05    -1.3877787808e-17    
-0.25    -0.2    -0.15    -0.1    -0.05    
0.0    -0.25    -0.2    -0.15    -0.1    
-0.05    0.0    -0.25    -0.2    -0.15    
-0.1    -0.05    0.0    -0.25    -0.2    
-0.15    -0.1    -0.05    0.0    -0.25    
-0.2    -0.15    -0.1    -0.05    0.0    
-0.25    -0.2    -0.15    -0.1    -0.05    
6.9388939039e-18    
0.0    0.0    0.0    0.0    0.0    
0.0    0.0    0.0    0.0    0.0    
0.0    0.0    -0.05    -0.05    -0.05    
-0.05    -0.05    -0.05    -0.05    -0.05    
-0.05    -0.05    -0.05    -0.05    -0.1    
-0.1    -0.1    -0.1    -0.1    -0.1    
-0.1    -0.1    -0.1    -0.1    -0.1    
-0.1    -0.15    -0.15    -0.15    -0.15    
-0.15    -0.15    -0.15    -0.15    -0.15    
-0.15    -0.15    -0.15    -0.2    -0.2    
-0.2    -0.2    -0.2    -0.2    -0.2    
-0.2    -0.2    -0.2    -0.2    -0.2    
-0.25    -0.25    -0.25    -0.25    -0.25    
-0.25    -0.25    -0.25    -0.25    -0.25    
-0.25    -0.25    -0.3    -0.3    -0.3    
-0.3    -0.3    -0.3    -0.3    -0.3    
-0.3    -0.3    -0.3    -0.3    -0.35    
-0.35    -0.35    -0.35    -0.35    -0.35    
-0.35    -0.35    -0.35    -0.35    -0.35    
-0.35    -0.4    -0.4    -0.4    -0.4    
-0.4    -0.4    -0.4    -0.4    -0.4    
-0.4    -0.4    -0.4    -0.45    -0.45    
-0.45    -0.45    -0.45    -0.45    -0.45    
-0.45    -0.45    -0.45    -0.45    -0.45    
-0.5    -0.5    -0.5    -0.5    -0.5    
-0.5    -0.5    -0.5    -0.5    -0.5    
-0.5    -0.5    0.0    0.0    0.0    
0.0    0.0    0.0    -0.05    -0.05    
-0.05    -0.05    -0.05    -0.05    -0.1    
-0.1    -0.1    -0.1    -0.1    -0.1    
-0.15    -0.15    -0.15    -0.15    -0.15    
-0.15    -0.2    -0.2    -0.2    -0.2    
-0.2    -0.2    -0.25    -0.25    -0.25    
-0.25    -0.25    -0.25    -0.3    -0.3    
-0.3    -0.3    -0.3    -0.3    -0.35    
-0.35    -0.35    -0.35    -0.35    -0.35    
-0.4    -0.4    -0.4    -0.4    -0.4    
-0.4    -0.45    -0.45    -0.45    -0.45    
-0.45    -0.45    -0.5    -0.5    -0.5    
-0.5    -0.5    -0.5    0.0    0.0    
0.0    0.0    0.0    0.0    -0.05    
-0.05    -0.05    -0.05    -0.05    -0.05    
-0.1    -0.1    -0.1    -0.1    -0.1    
-0.1    -0.15    -0.15    -0.15    -0.15    
-0.15    -0.15    -0.2    -0.2    -0.2    
-0.2    -0.2    -0.2    -0.25    -0.25    
-0.25    -0.25    -0.25    -0.25    -0.3    
-0.3    -0.3    -0.3    -0.3    -0.3    
-0.35    -0.35    -0.35    -0.35    -0.35    
-0.35    -0.4    -0.4    -0.4    -0.4    
-0.4    -0.4    -0.45    -0.45    -0.45    
-0.45    -0.45    -0.45    -0.5    -0.5    
-0.5    -0.5    -0.5    -0.5    0.0    
0.0    0.0    0.0    0.0    0.0    
-0.05    -0.05    -0.05    -0.05    -0.05    
-0.05    -0.1    -0.1    -0.1    -0.1    
-0.1    -0.1    -0.15    -0.15    -0.15    
-0.15    -0.15    -0.15    -0.2    -0.2    
-0.2    -0.2    -0.2    -0.2    -0.25    
-0.25    -0.25    -0.25    -0.25    -0.25    
-0.3    -0.3    -0.3    -0.3    -0.3    
-0.3    -0.35    -0.35    -0.35    -0.35    
-0.35    -0.35    -0.4    -0.4    -0.4    
-0.4    -0.4    -0.4    -0.45    -0.45    
-0.45    -0.45    -0.45    -0.45    -0.5    
-0.5    -0.5    -0.5    -0.5    -0.5    
0.0    0.0    2.4651903288e-32    0.0    0.0    
0.0    -0.05    -0.05    -0.05    -0.05    
-0.05    -0.05    -0.1    -0.1    -0.1    
-0.1    -0.1    -0.1    -0.15    -0.15    
-0.15    -0.15    -0.15    -0.15    -0.2    
-0.2    -0.2    -0.2    -0.2    -0.2    
-0.25    -0.25    -0.25    -0.25    -0.25    
-0.25    -0.3    -0.3    -0.3    -0.3    
-0.3    -0.3    -0.35    -0.35    -0.35    
-0.35    -0.35    -0.35    -0.4    -0.4    
-0.4    -0.4    -0.4    -0.4    -0.45    
-0.45    -0.45    -0.45    -0.45    -0.45    
-0.5    -0.5    -0.5    -0.5    -0.5    
-0.5    
398.114158012    397.55635003    396.869230533    396.013000373    394.935343364    
398.157784269    397.61190461    396.938750732    396.098776033    395.039773842    
398.244541905    397.72258112    397.077577578    396.270594331    395.249798602    
398.373345114    397.88735902    397.285041847    396.528627435    395.567234363    
398.542341761    398.104340641    397.559557131    396.872243712    395.993513357    
398.74869267    398.370373859    397.897993769    397.299001277    396.528125552    
398.988356655    398.680661366    398.294990021    397.80346563    397.166643945    
399.255945253    399.028458857    398.742359018    398.376083656    397.898637083    
399.544713078    399.404978537    399.228795848    399.002467093    398.706056826    
399.846733064    399.799596922    399.740085237    399.663493276    399.562926783    
394.397136105    392.742807031    390.707282066    388.17465231    384.993713263    
394.526788684    392.907866119    390.913766371    388.429312947    385.303602691    
394.78461544    393.236684723    391.326075006    388.939380666    385.926753197    
395.167375347    393.726204416    391.942171763    389.705277787    386.868394819    
395.669545986    394.370752714    392.757279947    390.725006779    388.132547851    
396.282671318    395.160928566    393.762034096    391.991180271    389.717426573    
396.994727425    396.082450168    394.940450364    393.487540511    391.609631689    
397.789695484    397.115267822    396.268184744    395.185656761    393.778038336    
398.647536551    398.233285052    397.711681047    397.042840044    396.169111512    
399.544713078    399.404978536    399.228795847    399.002467092    398.706056825    
390.840799655    388.145400874    384.835954121    380.729952938    375.592640708    
391.052865182    388.415245329    385.173311394    381.14569965    376.098073412    
391.474554445    388.952766256    385.846868952    381.97827075    377.114189535    
392.100522783    389.752882951    386.853151594    383.228085283    378.649032137    
392.921681906    390.806216747    388.184157214    384.891511122    380.70846596    
393.924144522    392.097289255    389.824371678    386.956072413    383.28876357    
395.088201105    393.602665475    391.747502651    389.394858357    386.36729304    
396.387635761    395.289532633    393.913693451    392.161253275    389.892795956    
397.789695482    397.115267822    396.268184744    395.185656762    393.778038336    
399.255945251    399.028458856    398.742359018    398.376083655    397.898637081    
387.541882155    383.892198288    379.423823383    373.900817967    367.025300257    
387.830545283    384.259262185    379.882333984    374.465276489    367.710648708    
388.40450412    384.990361161    380.797638721    375.595400432    369.088016723    
389.25640336    386.078435926    382.164743417    377.291268314    371.167434057    
390.373769721    387.510536454    383.97241221    379.5472791    373.955615731    
391.737596675    389.265408561    386.199174448    382.345749477    377.446065065    
393.320977669    391.311017045    388.808976577    385.649488257    381.606737325    
395.088201094    393.602665467    391.747502643    389.394858351    386.36729303    
396.994727415    396.082450161    394.940450359    393.487540507    391.609631683    
398.98835665    398.680661363    398.294990018    397.803465627    397.166643941    
384.58346977    380.090622905    374.607812609    367.859736812    359.506083245    
384.940990103    380.544889127    375.174691768    368.556758223    360.351141662    
385.651797724    381.449559775    376.306124392    369.951931594    362.048859546    
386.706668343    382.795688233    377.99555374    372.044667591    364.610389234    
388.090007603    384.566975578    380.228582625    374.827117749    368.042308292    
389.778128686    386.736837506    382.978128191    378.276417613    372.334643131    
391.737596647    389.265408534    386.199174422    382.345749459    377.446065046    
393.924144488    392.097289225    389.824371649    386.956072383    383.288763545    
396.282671294    395.160928545    393.762034078    391.991180255    389.717426553    
398.74869266    398.37037385    397.89799376    397.299001267    396.528125542    

-0.225    -0.175    -0.125    -0.075    -0.025    
-0.225    -0.175    -0.125    -0.075    -0.025    
-0.225    -0.175    -0.125    -0.075    -0.025    
-0.225    -0.175    -0.125    -0.075    -0.025    
-0.225    -0.175    -0.125    -0.075    -0.025    
-0.225    -0.175    -0.125    -0.075    -0.025    
-0.225    -0.175    -0.125    -0.075    -0.025    
-0.225    -0.175    -0.125    -0.075    -0.025    
-0.225    -0.175    -0.125    -0.075    -0.025    
-0.225    -0.175    -0.125    -0.075    -0.025    
-0.225    -0.175    -0.125    -0.075    -0.025    
-0.225    -0.175    -0.125    -0.075    -0.025    
-0.225    -0.175    -0.125    -0.075    -0.025    
-0.225    -0.175    -0.125    -0.075    -0.025    
-0.225    -0.175    -0.125    -0.075    -0.025    
-0.225    -0.175    -0.125    -0.075    -0.025    
-0.225    -0.175    -0.125    -0.075    -0.025    
-0.225    -0.175    -0.125    -0.075    -0.025    
-0.225    -0.175    -0.125    -0.075    -0.025    
-0.225    -0.175    -0.125    -0.075    -0.025    
-0.225    -0.175    -0.125    -0.075    -0.025    
-0.225    -0.175    -0.125    -0.075    -0.025    
-0.225    -0.175    -0.125    -0.075    -0.025    
-0.225    -0.175    -0.125    -0.075    -0.025    
-0.225    -0.175    -0.125    -0.075    -0.025    
-0.225    -0.175    -0.125    -0.075    -0.025    
-0.225    -0.175    -0.125    -0.075    -0.025    
-0.225    -0.175    -0.125    -0.075    -0.025    
-0.225    -0.175    -0.125    -0.075    -0.025    
-0.225    -0.175    -0.125    -0.075    -0.025    
-0.225    -0.175    -0.125    -0.075    -0.025    
-0.225    -0.175    -0.125    -0.075    -0.025    
-0.225    -0.175    -0.125    -0.075    -0.025    
-0.225    -0.175    -0.125    -0.075    -0.025    
-0.225    -0.175    -0.125    -0.075    -0.025    
-0.225    -0.175    -0.125    -0.075    -0.025    
-0.225    -0.175    -0.125    -0.075    -0.025    
-0.225    -0.175    -0.125    -0.075    -0.025    
-0.225    -0.175    -0.125    -0.075    -0.025    
-0.225    -0.175    -0.125    -0.075    -0.025    
-0.225    -0.175    -0.125    -0.075    -0.025    
-0.225    -0.175    -0.125    -0.075    -0.025    
-0.225    -0.175    -0.125    -0.075    -0.025    
-0.225    -0.175    -0.125    -0.075    -0.025    
-0.225    -0.175    -0.125    -0.075    -0.025    
-0.225    -0.175    -0.125    -0.075    -0.025    
-0.225    -0.175    -0.125    -0.075    -0.025    
-0.225    -0.175    -0.125    -0.075    -0.025    
-0.225    -0.175    -0.125    -0.075    -0.025    
-0.225    -0.175    -0.125    -0.075    -0.025    

4     16     15     1     3     14     13     2     
1     15     16     4     5     17     18     6     
5     17     18     6     7     19     20     8     
7     19     20     8     9     21     22     10     
9     21     22     10     11     23     24     12     
15     13     14     16     27     25     26     28     
17     15     16     18     29     27     28     30     
19     17     18     20     31     29     30     32     
21     19     20     22     33     31     32     34     
23     21     22     24     35     33     34     36     
27     25     26     28     39     37     38     40     
29     27     28     30     41     39     40     42     
31     29     30     32     43     41     42     44     
33     31     32     34     45     43     44     46     
35     33     34     36     47     45     46     48     
39     37     38     40     51     49     50     52     
41     39     40     42     53     51     52     54     
43     41     42     44     55     53     54     56     
45     43     44     46     57     55     56     58     
47     45     46     48     59     57     58     60     
51     49     50     52     63     61     62     64     
53     51     52     54     65     63     64     66     
55     53     54     56     67     65     66     68     
57     55     56     58     69     67     68     70     
59     57     58     60     71     69     70     72     
63     61     62     64     75     73     74     76     
65     63     64     66     77     75     76     78     
67     65     66     68     79     77     78     80     
69     67     68     70     81     79     80     82     
71     69     70     72     83     81     82     84     
75     73     74     76     87     85     86     88     
77     75     76     78     89     87     88     90     
79     77     78     80     91     89     90     92     
81     79     80     82     93     91     92     94     
83     81     82     84     95     93     94     96     
87     85     86     88     99     97     98     100     
89     87     88     90     101     99     100     102     
91     89     90     92     103     101     102     104     
93     91     92     94     105     103     104     106     
95     93     94     96     107     105     106     108     
99     97     98     100     111     109     110     112     
101     99     100     102     113     111     112     114     
103     101     102     104     115     113     114     116     
105     103     104     106     117     115     116     118     
107     105     106     108     119     117     118     120     
111     109     110     112     123     121     122     124     
113     111     112     114     125     123     124     126     
115     113     114     116     127     125     126     128     
117     115     116     118     129     127     128     130     
119     117     118     120     131     129     130     132     
13     15     1     2     139     140     133     134     
15     17     5     1     140     141     135     133     
17     19     7     5     141     142     136     135     
19     21     9     7     142     143     137     136     
21     23     11     9     143     144     138     137     
25     27     15     13     145     146     140     139     
27     29     17     15     146     147     141     140     
29     31     19     17     147     148     142     141     
31     33     21     19     148     149     143     142     
33     35     23     21     149     150     144     143     
37     39     27     25     151     152     146     145     
39     41     29     27     152     153     147     146     
41     43     31     29     153     154     148     147     
43     45     33     31     154     155     149     148     
45     47     35     33     155     156     150     149     
49     51     39     37     157     158     152     151     
51     53     41     39     158     159     153     152     
53     55     43     41     159     160     154     153     
55     57     45     43     160     161     155     154     
57     59     47     45     161     162     156     155     
61     63     51     49     163     164     158     157     
63     65     53     51     164     165     159     158     
65     67     55     53     165     166     160     159     
67     69     57     55     166     167     161     160     
69     71     59     57     167     168     162     161     
73     75     63     61     169     170     164     163     
75     77     65     63     170     171     165     164     
77     79     67     65     171     172     166     165     
79     81     69     67     172     173     167     166     
81     83     71     69     173     174     168     167     
85     87     75     73     175     176     170     169     
87     89     77     75     176     177     171     170     
89     91     79     77     177     178     172     171     
91     93     81     79     178     179     173     172     
93     95     83     81     179     180     174     173     
97     99     87     85     181     182     176     175     
99     101     89     87     182     183     177     176     
101     103     91     89     183     184     178     177     
103     105     93     91     184     185     179     178     
105     107     95     93     185     186     180     179     
109     111     99     97     187     188     182     181     
111     113     101     99     188     189     183     182     
113     115     103     101     189     190     184     183     
115     117     105     103     190     191     185     184     
117     119     107     105     191     192     186     185     
121     123     111     109     193     194     188     187     
123     125     113     111     194     195     189     188     
125     127     115     113     195     196     190     189     
127     129     117     115     196     197     191     190     
129     131     119     117     197     198     192     191     
139     140     133     134     205     206     199     200     
140     141     135     133     206     207     201     199     
141     142     136     135     207     208     202     201     
142     143     137     136     208     209     203     202     
143     144     138     137     209     210     204     203     
145     146     140     139     211     212     206     205     
146     147     141     140     212     213     207     206     
147     148     142     141     213     214     208     207     
148     149     143     142     214     215     209     208     
149     150     144     143     215     216     210     209     
151     152     146     145     217     218     212     211     
152     153     147     146     218     219     213     212     
153     154     148     147     219     220     214     213     
154     155     149     148     220     221     215     214     
155     156     150     149     221     222     216     215     
157     158     152     151     223     224     218     217     
158     159     153     152     224     225     219     218     
159     160     154     153     225     226     220     219     
160     161     155     154     226     227     221     220     
161     162     156     155     227     228     222     221     
163     164     158     157     229     230     224     223     
164     165     159     158     230     231     225     224     
165     166     160     159     231     232     226     225     
166     167     161     160     232     233     227     226     
167     168     162     161     233     234     228     227     
169     170     164     163     235     236     230     229     
170     171     165     164     236     237     231     230     
171     172     166     165     237     238     232     231     
172     173     167     166     238     239     233     232     
173     174     168     167     239     240     234     233     
175     176     170     169     241     242     236     235     
176     177     171     170     242     243     237     236     
177     178     172     171     243     244     238     237     
178     179     173     172     244     245     239     238     
179     180     174     173     245     246     240     239     
181     182     176     175     247     248     242     241     
182     183     177     176     248     249     243     242     
183     184     178     177     249     250     244     243     
184     185     179     178     250     251     245     244     
185     186     180     179     251     252     246     245     
187     188     182     181     253     254     248     247     
188     189     183     182     254     255     249     248     
189     190     184     183     255     256     250     249     
190     191     185     184     256     257     251     250     
191     192     186     185     257     258     252     251     
193     194     188     187     259     260     254     253     
194     195     189     188     260     261     255     254     
195     196     190     189     261     262     256     255     
196     197     191     190     262     263     257     256     
197     198     192     191     263     264     258     257     
205     206     199     200     271     272     265     266     
206     207     201     199     272     273     267     265     
207     208     202     201     273     274     268     267     
208     209     203     202     274     275     269     268     
209     210     204     203     275     276     270     269     
211     212     206     205     277     278     272     271     
212     213     207     206     278     279     273     272     
213     214     208     207     279     280     274     273     
214     215     209     208     280     281     275     274     
215     216     210     209     281     282     276     275     
217     218     212     211     283     284     278     277     
218     219     213     212     284     285     279     278     
219     220     214     213     285     286     280     279     
220     221     215     214     286     287     281     280     
221     222     216     215     287     288     282     281     
223     224     218     217     289     290     284     283     
224     225     219     218     290     291     285     284     
225     226     220     219     291     292     286     285     
226     227     221     220     292     293     287     286     
227     228     222     221     293     294     288     287     
229     230     224     223     295     296     290     289     
230     231     225     224     296     297     291     290     
231     232     226     225     297     298     292     291     
232     233     227     226     298     299     293     292     
233     234     228     227     299     300     294     293     
235     236     230     229     301     302     296     295     
236     237     231     230     302     303     297     296     
237     238     232     231     303     304     298     297     
238     239     233     232     304     305     299     298     
239     240     234     233     305     306     300     299     
241     242     236     235     307     308     302     301     
242     243     237     236     308     309     303     302     
243     244     238     237     309     310     304     303     
244     245     239     238     310     311     305     304     
245     246     240     239     311     312     306     305     
247     248     242     241     313     314     308     307     
248     249     243     242     314     315     309     308     
249     250     244     243     315     316     310     309     
250     251     245     244     316     317     311     310     
251     252     246     245     317     318     312     311     
253     254     248     247     319     320     314     313     
254     255     249     248     320     321     315     314     
255     256     250     249     321     322     316     315     
256     257     251     250     322     323     317     316     
257     258     252     251     323     324     318     317     
259     260     254     253     325     326     320     319     
260     261     255     254     326     327     321     320     
261     262     256     255     327     328     322     321     
262     263     257     256     328     329     323     322     
263     264     258     257     329     330     324     323     
271     272     265     266     337     338     331     332     
272     273     267     265     338     339     333     331     
273     274     268     267     339     340     334     333     
274     275     269     268     340     341     335     334     
275     276     270     269     341     342     336     335     
277     278     272     271     343     344     338     337     
278     279     273     272     344     345     339     338     