Title = " tecplot file for 2D Cavity problem " 
variables = "x", "y", "z", "velX", "cellCentroidY" 
Zone T = "nmesh0" N = 402 E = 250 DATAPACKING = BLOCK, VARLOCATION = ([4-5]=CELLCENTERED), ZONETYPE=FEBRICK
-0.25    -0.25    -0.25    -0.25    -0.25    
-0.25    -0.25    -0.25    -0.25    -0.25    
-0.25    -0.25    -0.25    -0.25    -0.25    
-0.25    -0.25    -0.25    -0.25    -0.25    
-0.25    -0.25    -0.25    -0.25    -0.25    
-0.25    -0.25    -0.25    -0.25    -0.25    
-0.25    -0.25    -0.25    -0.25    -0.25    
-0.25    -0.25    -0.25    -0.25    -0.25    
-0.25    -0.25    -0.25    -0.25    -0.25    
-0.25    -0.25    -0.25    -0.25    -0.25    
-0.25    -0.25    -0.25    -0.25    -0.25    
-0.25    -0.25    -0.25    -0.25    -0.25    
-0.25    -0.25    -0.25    -0.25    -0.25    
-0.25    -0.25    -0.3    -0.3    -0.3    
-0.3    -0.3    -0.3    -0.3    -0.3    
-0.3    -0.3    -0.3    -0.3    -0.3    
-0.3    -0.3    -0.3    -0.3    -0.3    
-0.3    -0.3    -0.3    -0.3    -0.3    
-0.3    -0.3    -0.3    -0.3    -0.3    
-0.3    -0.3    -0.3    -0.3    -0.3    
-0.3    -0.3    -0.3    -0.3    -0.3    
-0.3    -0.3    -0.3    -0.3    -0.3    
-0.3    -0.3    -0.3    -0.3    -0.3    
-0.3    -0.3    -0.3    -0.3    -0.3    
-0.3    -0.3    -0.3    -0.3    -0.3    
-0.3    -0.3    -0.3    -0.3    -0.3    
-0.3    -0.3    -0.3    -0.3    -0.35    
-0.35    -0.35    -0.35    -0.35    -0.35    
-0.35    -0.35    -0.35    -0.35    -0.35    
-0.35    -0.35    -0.35    -0.35    -0.35    
-0.35    -0.35    -0.35    -0.35    -0.35    
-0.35    -0.35    -0.35    -0.35    -0.35    
-0.35    -0.35    -0.35    -0.35    -0.35    
-0.35    -0.35    -0.35    -0.35    -0.35    
-0.35    -0.35    -0.35    -0.35    -0.35    
-0.35    -0.35    -0.35    -0.35    -0.35    
-0.35    -0.35    -0.35    -0.35    -0.35    
-0.35    -0.35    -0.35    -0.35    -0.35    
-0.35    -0.35    -0.35    -0.35    -0.35    
-0.35    -0.35    -0.35    -0.35    -0.35    
-0.35    -0.4    -0.4    -0.4    -0.4    
-0.4    -0.4    -0.4    -0.4    -0.4    
-0.4    -0.4    -0.4    -0.4    -0.4    
-0.4    -0.4    -0.4    -0.4    -0.4    
-0.4    -0.4    -0.4    -0.4    -0.4    
-0.4    -0.4    -0.4    -0.4    -0.4    
-0.4    -0.4    -0.4    -0.4    -0.4    
-0.4    -0.4    -0.4    -0.4    -0.4    
-0.4    -0.4    -0.4    -0.4    -0.4    
-0.4    -0.4    -0.4    -0.4    -0.4    
-0.4    -0.4    -0.4    -0.4    -0.4    
-0.4    -0.4    -0.4    -0.4    -0.4    
-0.4    -0.4    -0.4    -0.4    -0.4    
-0.4    -0.4    -0.4    -0.45    -0.45    
-0.45    -0.45    -0.45    -0.45    -0.45    
-0.45    -0.45    -0.45    -0.45    -0.45    
-0.45    -0.45    -0.45    -0.45    -0.45    
-0.45    -0.45    -0.45    -0.45    -0.45    
-0.45    -0.45    -0.45    -0.45    -0.45    
-0.45    -0.45    -0.45    -0.45    -0.45    
-0.45    -0.45    -0.45    -0.45    -0.45    
-0.45    -0.45    -0.45    -0.45    -0.45    
-0.45    -0.45    -0.45    -0.45    -0.45    
-0.45    -0.45    -0.45    -0.45    -0.45    
-0.45    -0.45    -0.45    -0.45    -0.45    
-0.45    -0.45    -0.45    -0.45    -0.45    
-0.45    -0.45    -0.45    -0.45    -0.45    
-0.5    -0.5    -0.5    -0.5    -0.5    
-0.5    -0.5    -0.5    -0.5    -0.5    
-0.5    -0.5    -0.5    -0.5    -0.5    
-0.5    -0.5    -0.5    -0.5    -0.5    
-0.5    -0.5    -0.5    -0.5    -0.5    
-0.5    -0.5    -0.5    -0.5    -0.5    
-0.5    -0.5    -0.5    -0.5    -0.5    
-0.5    -0.5    -0.5    -0.5    -0.5    
-0.5    -0.5    -0.5    -0.5    -0.5    
-0.5    -0.5    -0.5    -0.5    -0.5    
-0.5    -0.5    -0.5    -0.5    -0.5    
-0.5    -0.5    -0.5    -0.5    -0.5    
-0.5    -0.5    -0.5    -0.5    -0.5    
-0.5    -0.5    
0.0    0.05    0.05    1.3877787808e-17    0.1    
0.1    0.15    0.15    0.2    0.2    
0.25    0.25    0.0    0.05    0.1    
0.15    0.2    0.25    0.0    0.05    
0.1    0.15    0.2    0.25    0.3    
0.3    0.35    0.35    0.4    0.4    
0.45    0.45    0.5    0.5    0.0    
0.05    0.1    0.15    0.2    0.25    
0.3    0.35    0.4    0.45    0.5    
0.0    0.05    0.1    0.15    0.2    
0.25    0.3    0.35    0.4    0.45    
0.5    0.0    0.05    0.1    0.15    
0.2    0.25    0.3    0.35    0.4    
0.45    0.5    0.05    1.6653345369e-17    0.1    
0.15    0.2    0.25    0.0    0.05    
0.1    0.15    0.2    0.25    0.0    
0.05    0.1    0.15    0.2    0.25    
0.3    0.35    0.4    0.45    0.5    
0.0    0.05    0.1    0.15    0.2    
0.25    0.3    0.35    0.4    0.45    
0.5    0.0    0.05    0.1    0.15    
0.2    0.25    0.3    0.35    0.4    
0.45    0.5    0.0    0.05    0.1    
0.15    0.2    0.25    0.3    0.35    
0.4    0.45    0.5    0.0    0.05    
0.1    0.15    0.2    0.25    0.3    
0.35    0.4    0.45    0.5    0.05    
1.9428902931e-17    0.1    0.15    0.2    0.25    
0.0    0.05    0.1    0.15    0.2    
0.25    0.0    0.05    0.1    0.15    
0.2    0.25    0.3    0.35    0.4    
0.45    0.5    0.0    0.05    0.1    
0.15    0.2    0.25    0.3    0.35    
0.4    0.45    0.5    0.0    0.05    
0.1    0.15    0.2    0.25    0.3    
0.35    0.4    0.45    0.5    0.0    
0.05    0.1    0.15    0.2    0.25    
0.3    0.35    0.4    0.45    0.5    
0.0    0.05    0.1    0.15    0.2    
0.25    0.3    0.35    0.4    0.45    
0.5    0.05    2.2204460493e-17    0.1    0.15    
0.2    0.25    0.0    0.05    0.1    
0.15    0.2    0.25    0.0    0.05    
0.1    0.15    0.2    0.25    0.3    
0.35    0.4    0.45    0.5    0.0    
0.05    0.1    0.15    0.2    0.25    
0.3    0.35    0.4    0.45    0.5    
0.0    0.05    0.1    0.15    0.2    
0.25    0.3    0.35    0.4    0.45    
0.5    0.0    0.05    0.1    0.15    
0.2    0.25    0.3    0.35    0.4    
0.45    0.5    0.0    0.05    0.1    
0.15    0.2    0.25    0.3    0.35    
0.4    0.45    0.5    0.05    2.4980018054e-17    
0.1    0.15    0.2    0.25    0.0    
0.05    0.1    0.15    0.2    0.25    
0.0    0.05    0.1    0.15    0.2    
0.25    0.3    0.35    0.4    0.45    
0.5    0.0    0.05    0.1    0.15    
0.2    0.25    0.3    0.35    0.4    
0.45    0.5    0.0    0.05    0.1    
0.15    0.2    0.25    0.3    0.35    
0.4    0.45    0.5    0.0    0.05    
0.1    0.15    0.2    0.25    0.3    
0.35    0.4    0.45    0.5    0.0    
0.05    0.1    0.15    0.2    0.25    
0.3    0.35    0.4    0.45    0.5    
0.05    2.7755575616e-17    0.1    0.15    0.2    
0.25    0.0    0.05    0.1    0.15    
0.2    0.25    0.0    0.05    0.1    
0.15    0.2    0.25    0.3    0.35    
0.4    0.45    0.5    0.0    0.05    
0.1    0.15    0.2    0.25    0.3    
0.35    0.4    0.45    0.5    0.0    
0.05    0.1    0.15    0.2    0.25    
0.3    0.35    0.4    0.45    0.5    
0.0    0.05    0.1    0.15    0.2    
0.25    0.3    0.35    0.4    0.45    
0.5    0.0    0.05    0.1    0.15    
0.2    0.25    0.3    0.35    0.4    
0.45    0.5    
-0.25    -0.25    -0.2    -0.2    -0.25    
-0.2    -0.25    -0.2    -0.25    -0.2    
-0.25    -0.2    -0.3    -0.3    -0.3    
-0.3    -0.3    -0.3    -0.35    -0.35    
-0.35    -0.35    -0.35    -0.35    -0.35    
-0.3    -0.35    -0.3    -0.35    -0.3    
-0.35    -0.3    -0.35    -0.3    -0.4    
-0.4    -0.4    -0.4    -0.4    -0.4    
-0.4    -0.4    -0.4    -0.4    -0.4    
-0.45    -0.45    -0.45    -0.45    -0.45    
-0.45    -0.45    -0.45    -0.45    -0.45    
-0.45    -0.5    -0.5    -0.5    -0.5    
-0.5    -0.5    -0.5    -0.5    -0.5    
-0.5    -0.5    -0.2    -0.2    -0.2    
-0.2    -0.2    -0.2    -0.25    -0.25    
-0.25    -0.25    -0.25    -0.25    -0.3    
-0.3    -0.3    -0.3    -0.3    -0.3    
-0.3    -0.3    -0.3    -0.3    -0.3    
-0.35    -0.35    -0.35    -0.35    -0.35    
-0.35    -0.35    -0.35    -0.35    -0.35    
-0.35    -0.4    -0.4    -0.4    -0.4    
-0.4    -0.4    -0.4    -0.4    -0.4    
-0.4    -0.4    -0.45    -0.45    -0.45    
-0.45    -0.45    -0.45    -0.45    -0.45    
-0.45    -0.45    -0.45    -0.5    -0.5    
-0.5    -0.5    -0.5    -0.5    -0.5    
-0.5    -0.5    -0.5    -0.5    -0.2    
-0.2    -0.2    -0.2    -0.2    -0.2    
-0.25    -0.25    -0.25    -0.25    -0.25    
-0.25    -0.3    -0.3    -0.3    -0.3    
-0.3    -0.3    -0.3    -0.3    -0.3    
-0.3    -0.3    -0.35    -0.35    -0.35    
-0.35    -0.35    -0.35    -0.35    -0.35    
-0.35    -0.35    -0.35    -0.4    -0.4    
-0.4    -0.4    -0.4    -0.4    -0.4    
-0.4    -0.4    -0.4    -0.4    -0.45    
-0.45    -0.45    -0.45    -0.45    -0.45    
-0.45    -0.45    -0.45    -0.45    -0.45    
-0.5    -0.5    -0.5    -0.5    -0.5    
-0.5    -0.5    -0.5    -0.5    -0.5    
-0.5    -0.2    -0.2    -0.2    -0.2    
-0.2    -0.2    -0.25    -0.25    -0.25    
-0.25    -0.25    -0.25    -0.3    -0.3    
-0.3    -0.3    -0.3    -0.3    -0.3    
-0.3    -0.3    -0.3    -0.3    -0.35    
-0.35    -0.35    -0.35    -0.35    -0.35    
-0.35    -0.35    -0.35    -0.35    -0.35    
-0.4    -0.4    -0.4    -0.4    -0.4    
-0.4    -0.4    -0.4    -0.4    -0.4    
-0.4    -0.45    -0.45    -0.45    -0.45    
-0.45    -0.45    -0.45    -0.45    -0.45    
-0.45    -0.45    -0.5    -0.5    -0.5    
-0.5    -0.5    -0.5    -0.5    -0.5    
-0.5    -0.5    -0.5    -0.2    -0.2    
-0.2    -0.2    -0.2    -0.2    -0.25    
-0.25    -0.25    -0.25    -0.25    -0.25    
-0.3    -0.3    -0.3    -0.3    -0.3    
-0.3    -0.3    -0.3    -0.3    -0.3    
-0.3    -0.35    -0.35    -0.35    -0.35    
-0.35    -0.35    -0.35    -0.35    -0.35    
-0.35    -0.35    -0.4    -0.4    -0.4    
-0.4    -0.4    -0.4    -0.4    -0.4    
-0.4    -0.4    -0.4    -0.45    -0.45    
-0.45    -0.45    -0.45    -0.45    -0.45    
-0.45    -0.45    -0.45    -0.45    -0.5    
-0.5    -0.5    -0.5    -0.5    -0.5    
-0.5    -0.5    -0.5    -0.5    -0.5    
-0.2    -0.2    -0.2    -0.2    -0.2    
-0.2    -0.25    -0.25    -0.25    -0.25    
-0.25    -0.25    -0.3    -0.3    -0.3    
-0.3    -0.3    -0.3    -0.3    -0.3    
-0.3    -0.3    -0.3    -0.35    -0.35    
-0.35    -0.35    -0.35    -0.35    -0.35    
-0.35    -0.35    -0.35    -0.35    -0.4    
-0.4    -0.4    -0.4    -0.4    -0.4    
-0.4    -0.4    -0.4    -0.4    -0.4    
-0.45    -0.45    -0.45    -0.45    -0.45    
-0.45    -0.45    -0.45    -0.45    -0.45    
-0.45    -0.5    -0.5    -0.5    -0.5    
-0.5    -0.5    -0.5    -0.5    -0.5    
-0.5    -0.5    
359.45440938    348.507500878    334.46082615    316.328585773    292.816954239    
364.754694421    354.994942875    342.310145652    325.670055353    303.660057315    
371.144881083    362.944907768    352.137111735    337.696478852    318.133220997    
291.303760229    254.241987354    203.233377324    134.723720809    48.1989880616    
378.537258313    372.291298495    363.944735211    352.578831665    336.769756583    
314.277672196    281.579664006    233.313150846    162.194263374    61.7224035962    
386.754310464    382.827557085    377.519346508    370.168329278    359.682366728    
344.170959887    320.190450456    281.156257802    214.178638795    95.8716656629    
395.520293693    394.178530273    392.352248723    389.795814571    386.08247107    
380.403324133    371.020983648    353.510574244    314.140969496    201.776918818    
366.822141771    357.634337785    345.681889347    329.97006972    309.102413372    
371.144881049    362.94490773    352.137111699    337.696478819    318.133220963    
376.364219387    369.466874616    360.244513551    347.689583621    330.26685964    
305.637747733    270.332535755    219.5977661    148.188620724    53.9251650148    
382.410971256    377.151349651    370.018199836    360.116585447    346.00369229    
325.309785317    294.137863017    246.299342748    173.080675812    66.4447791307    
389.140847684    385.831128188    381.288542489    374.872549698    365.488598808    
351.177774336    328.272864177    289.658533795    221.460015177    99.1153696991    
396.326647639    395.195111398    393.630953078    391.396881184    388.067507197    
382.814113077    373.827482746    356.50287473    316.755400952    202.979984639    
375.333325183    368.341982916    359.123622995    346.777104594    329.942755621    
378.537258285    372.291298462    363.944735182    352.578831638    336.769756556    
382.410971253    377.151349649    370.018199834    360.116585445    346.003692285    
325.309785313    294.137863017    246.299342749    173.080675813    66.4447791307    
386.904859644    382.88962555    377.363472681    369.536655587    358.070567958    
340.623962371    313.032986129    268.008066937    193.897033729    77.2698397941    
391.912396985    389.383360839    385.859077637    380.776360993    373.12770261    
361.010324762    340.645080724    304.259848138    235.971472009    107.051143284    
397.263636799    396.398520611    395.183887751    393.411343747    390.690486246    
386.22270313    378.181543596    361.768131372    322.203962622    206.192187644    
384.782479548    380.390728569    374.534666245    366.561066486    355.414084732    
386.754310449    382.827557066    377.519346492    370.168329264    359.682366708    
389.140847683    385.831128187    381.288542487    374.872549696    365.488598804    
351.177774329    328.272864173    289.658533794    221.460015176    99.1153696987    
391.912396986    389.383360839    385.859077637    380.776360993    373.127702609    
361.010324761    340.645080723    304.259848137    235.971472008    107.051143284    
395.003638685    393.409416069    391.158841065    387.850836676    382.729876897    
374.264725404    359.112917539    329.507803991    266.956829102    130.809133841    
398.309255303    397.763647492    396.987319184    395.831790054    394.004147037    
390.862454231    384.807407196    371.228690515    334.740546379    217.302410608    
394.85444197    393.354501016    391.341096628    388.570771741    384.628284857    
395.520293689    394.178530268    392.352248718    389.795814566    386.082471063    
396.326647639    395.195111397    393.630953077    391.396881184    388.067507195    
382.814113074    373.827482745    356.502874729    316.755400951    202.979984639    
397.263636799    396.398520612    395.183887751    393.411343747    390.690486247    
386.22270313    378.181543595    361.768131371    322.203962622    206.192187644    
398.309255303    397.763647493    396.987319184    395.831790054    394.004147038    
390.862454231    384.807407196    371.228690515    334.740546379    217.302410608    
399.427807333    399.24102128    398.973067923    398.568883733    397.914421832    
396.738196848    394.266244488    387.776944665    365.491931803    266.677417002    

0.025    0.075    0.125    0.175    0.225    
0.025    0.075    0.125    0.175    0.225    
0.025    0.075    0.125    0.175    0.225    
0.275    0.325    0.375    0.425    0.475    
0.025    0.075    0.125    0.175    0.225    
0.275    0.325    0.375    0.425    0.475    
0.025    0.075    0.125    0.175    0.225    
0.275    0.325    0.375    0.425    0.475    
0.025    0.075    0.125    0.175    0.225    
0.275    0.325    0.375    0.425    0.475    
0.025    0.075    0.125    0.175    0.225    
0.025    0.075    0.125    0.175    0.225    
0.025    0.075    0.125    0.175    0.225    
0.275    0.325    0.375    0.425    0.475    
0.025    0.075    0.125    0.175    0.225    
0.275    0.325    0.375    0.425    0.475    
0.025    0.075    0.125    0.175    0.225    
0.275    0.325    0.375    0.425    0.475    
0.025    0.075    0.125    0.175    0.225    
0.275    0.325    0.375    0.425    0.475    
0.025    0.075    0.125    0.175    0.225    
0.025    0.075    0.125    0.175    0.225    
0.025    0.075    0.125    0.175    0.225    
0.275    0.325    0.375    0.425    0.475    
0.025    0.075    0.125    0.175    0.225    
0.275    0.325    0.375    0.425    0.475    
0.025    0.075    0.125    0.175    0.225    
0.275    0.325    0.375    0.425    0.475    
0.025    0.075    0.125    0.175    0.225    
0.275    0.325    0.375    0.425    0.475    
0.025    0.075    0.125    0.175    0.225    
0.025    0.075    0.125    0.175    0.225    
0.025    0.075    0.125    0.175    0.225    
0.275    0.325    0.375    0.425    0.475    
0.025    0.075    0.125    0.175    0.225    
0.275    0.325    0.375    0.425    0.475    
0.025    0.075    0.125    0.175    0.225    
0.275    0.325    0.375    0.425    0.475    
0.025    0.075    0.125    0.175    0.225    
0.275    0.325    0.375    0.425    0.475    
0.025    0.075    0.125    0.175    0.225    
0.025    0.075    0.125    0.175    0.225    
0.025    0.075    0.125    0.175    0.225    
0.275    0.325    0.375    0.425    0.475    
0.025    0.075    0.125    0.175    0.225    
0.275    0.325    0.375    0.425    0.475    
0.025    0.075    0.125    0.175    0.225    
0.275    0.325    0.375    0.425    0.475    
0.025    0.075    0.125    0.175    0.225    
0.275    0.325    0.375    0.425    0.475    

3     2     75     68     4     1     74     69     
68     75     2     3     70     76     5     6     
70     76     5     6     71     77     7     8     
71     77     7     8     72     78     9     10     
72     78     9     10     73     79     11     12     
75     74     1     2     81     80     13     14     
76     75     2     5     82     81     14     15     
77     76     5     7     83     82     15     16     
78     77     7     9     84     83     16     17     
79     78     9     11     85     84     17     18     
81     80     13     14     92     91     19     20     
82     81     14     15     93     92     20     21     
83     82     15     16     94     93     21     22     
84     83     16     17     95     94     22     23     
85     84     17     18     96     95     23     24     
85     96     24     18     86     97     25     26     
86     97     25     26     87     98     27     28     
87     98     27     28     88     99     29     30     
88     99     29     30     89     100     31     32     
89     100     31     32     90     101     33     34     
92     91     19     20     103     102     35     36     
93     92     20     21     104     103     36     37     
94     93     21     22     105     104     37     38     
95     94     22     23     106     105     38     39     
96     95     23     24     107     106     39     40     
97     96     24     25     108     107     40     41     
98     97     25     27     109     108     41     42     
99     98     27     29     110     109     42     43     
100     99     29     31     111     110     43     44     
101     100     31     33     112     111     44     45     
103     102     35     36     114     113     46     47     
104     103     36     37     115     114     47     48     
105     104     37     38     116     115     48     49     
106     105     38     39     117     116     49     50     
107     106     39     40     118     117     50     51     
108     107     40     41     119     118     51     52     
109     108     41     42     120     119     52     53     
110     109     42     43     121     120     53     54     
111     110     43     44     122     121     54     55     
112     111     44     45     123     122     55     56     
114     113     46     47     125     124     57     58     
115     114     47     48     126     125     58     59     
116     115     48     49     127     126     59     60     
117     116     49     50     128     127     60     61     
118     117     50     51     129     128     61     62     
119     118     51     52     130     129     62     63     
120     119     52     53     131     130     63     64     
121     120     53     54     132     131     64     65     
122     121     54     55     133     132     65     66     
123     122     55     56     134     133     66     67     
74     75     68     69     141     142     135     136     
75     76     70     68     142     143     137     135     
76     77     71     70     143     144     138     137     
77     78     72     71     144     145     139     138     
78     79     73     72     145     146     140     139     
80     81     75     74     147     148     142     141     
81     82     76     75     148     149     143     142     
82     83     77     76     149     150     144     143     
83     84     78     77     150     151     145     144     
84     85     79     78     151     152     146     145     
91     92     81     80     158     159     148     147     
92     93     82     81     159     160     149     148     
93     94     83     82     160     161     150     149     
94     95     84     83     161     162     151     150     
95     96     85     84     162     163     152     151     
96     97     86     85     163     164     153     152     
97     98     87     86     164     165     154     153     
98     99     88     87     165     166     155     154     
99     100     89     88     166     167     156     155     
100     101     90     89     167     168     157     156     
102     103     92     91     169     170     159     158     
103     104     93     92     170     171     160     159     
104     105     94     93     171     172     161     160     
105     106     95     94     172     173     162     161     
106     107     96     95     173     174     163     162     
107     108     97     96     174     175     164     163     
108     109     98     97     175     176     165     164     
109     110     99     98     176     177     166     165     
110     111     100     99     177     178     167     166     
111     112     101     100     178     179     168     167     
113     114     103     102     180     181     170     169     
114     115     104     103     181     182     171     170     
115     116     105     104     182     183     172     171     
116     117     106     105     183     184     173     172     
117     118     107     106     184     185     174     173     
118     119     108     107     185     186     175     174     
119     120     109     108     186     187     176     175     
120     121     110     109     187     188     177     176     
121     122     111     110     188     189     178     177     
122     123     112     111     189     190     179     178     
124     125     114     113     191     192     181     180     
125     126     115     114     192     193     182     181     
126     127     116     115     193     194     183     182     
127     128     117     116     194     195     184     183     
128     129     118     117     195     196     185     184     
129     130     119     118     196     197     186     185     
130     131     120     119     197     198     187     186     
131     132     121     120     198     199     188     187     
132     133     122     121     199     200     189     188     
133     134     123     122     200     201     190     189     
141     142     135     136     208     209     202     203     
142     143     137     135     209     210     204     202     
143     144     138     137     210     211     205     204     
144     145     139     138     211     212     206     205     
145     146     140     139     212     213     207     206     
147     148     142     141     214     215     209     208     
148     149     143     142     215     216     210     209     
149     150     144     143     216     217     211     210     
150     151     145     144     217     218     212     211     
151     152     146     145     218     219     213     212     
158     159     148     147     225     226     215     214     
159     160     149     148     226     227     216     215     
160     161     150     149     227     228     217     216     
161     162     151     150     228     229     218     217     
162     163     152     151     229     230     219     218     
163     164     153     152     230     231     220     219     
164     165     154     153     231     232     221     220     
165     166     155     154     232     233     222     221     
166     167     156     155     233     234     223     222     
167     168     157     156     234     235     224     223     
169     170     159     158     236     237     226     225     
170     171     160     159     237     238     227     226     
171     172     161     160     238     239     228     227     
172     173     162     161     239     240     229     228     
173     174     163     162     240     241     230     229     
174     175     164     163     241     242     231     230     
175     176     165     164     242     243     232     231     
176     177     166     165     243     244     233     232     
177     178     167     166     244     245     234     233     
178     179     168     167     245     246     235     234     
180     181     170     169     247     248     237     236     
181     182     171     170     248     249     238     237     
182     183     172     171     249     250     239     238     
183     184     173     172     250     251     240     239     
184     185     174     173     251     252     241     240     
185     186     175     174     252     253     242     241     
186     187     176     175     253     254     243     242     
187     188     177     176     254     255     244     243     
188     189     178     177     255     256     245     244     
189     190     179     178     256     257     246     245     
191     192     181     180     258     259     248     247     
192     193     182     181     259     260     249     248     
193     194     183     182     260     261     250     249     
194     195     184     183     261     262     251     250     
195     196     185     184     262     263     252     251     
196     197     186     185     263     264     253     252     
197     198     187     186     264     265     254     253     
198     199     188     187     265     266     255     254     
199     200     189     188     266     267     256     255     
200     201     190     189     267     268     257     256     
208     209     202     203     275     276     269     270     
209     210     204     202     276     277     271     269     
210     211     205     204     277     278     272     271     
211     212     206     205     278     279     273     272     
212     213     207     206     279     280     274     273     
214     215     209     208     281     282     276     275     
215     216     210     209     282     283     277     276     
216     217     211     210     283     284     278     277     
217     218     212     211     284     285     279     278     
218     219     213     212     285     286     280     279     
225     226     215     214     292     293     282     281     
226     227     216     215     293     294     283     282     
227     228     217     216     294     295     284     283     
228     229     218     217     295     296     285     284     
229     230     219     218     296     297     286     285     
230     231     220     219     297     298     287     286     
231     232     221     220     298     299     288     287     
232     233     222     221     299     300     289     288     
233     234     223     222     300     301     290     289     
234     235     224     223     301     302     291     290     
236     237     226     225     303     304     293     292     
237     238     227     226     304     305     294     293     
238     239     228     227     305     306     295     294     
239     240     229     228     306     307     296     295     
240     241     230     229     307     308     297     296     
241     242     231     230     308     309     298     297     
242     243     232     231     309     310     299     298     
243     244     233     232     310     311     300     299     
244     245     234     233     311     312     301     300     
245     246     235     234     312     313     302     301     
247     248     237     236     314     315     304     303     
248     249     238     237     315     316     305     304     
249     250     239     238     316     317     306     305     
250     251     240     239     317     318     307     306     
251     252     241     240     318     319     308     307     
252     253     242     241     319     320     309     308     
253     254     243     242     320     321     310     309     
254     255     244     243     321     322     311     310     
255     256     245     244     322     323     312     311     
256     257     246     245     323     324     313     312     
258     259     248     247     325     326     315     314     
259     260     249     248     326     327     316     315     
260     261     250     249     327     328     317     316     
261     262     251     250     328     329     318     317     
262     263     252     251     329     330     319     318     
263     264     253     252     330     331     320     319     
264     265     254     253     331     332     321     320     
265     266     255     254     332     333     322     321     
266     267     256     255     333     334     323     322     
267     268     257     256     334     335     324     323     
275     276     269     270     342     343     336     337     
276     277     271     269     343     344     338     336     
277     278     272     271     344     345     339     338     
278     279     273     272     345     346     340     339     
279     280     274     273     346     347     341     340     
281     282     276     275     348     349     343     342     
282     283     277     276     349     350     344     343     