Title = " tecplot file for 2D Cavity problem " 
variables = "x", "y", "z", "velX", "cellCentroidY" 
Zone T = "nmesh0" N = 436 E = 250 DATAPACKING = BLOCK, VARLOCATION = ([4-5]=CELLCENTERED),  ZONETYPE=FEBRICK 
0.45    0.45    0.5    0.5    0.45    
0.5    0.45    0.5    0.45    0.5    
0.45    0.5    0.45    0.5    0.45    
0.5    0.45    0.5    0.45    0.5    
0.45    0.5    0.45    0.5    0.45    
0.45    0.5    0.45    0.5    0.45    
0.5    0.45    0.5    0.45    0.5    
0.45    0.5    0.45    0.5    0.45    
0.45    0.45    0.5    0.45    0.5    
0.45    0.5    0.45    0.5    0.45    
0.5    0.45    0.5    0.45    0.5    
0.45    0.5    0.45    0.45    0.5    
0.45    0.5    0.45    0.5    0.45    
0.5    0.45    0.5    0.45    0.5    
0.45    0.5    0.45    0.5    0.45    
0.5    0.45    0.5    0.45    0.5    
0.45    0.5    0.45    0.5    0.45    
0.5    0.45    0.5    0.45    0.5    
0.45    0.5    0.45    0.45    0.45    
0.5    0.45    0.5    0.45    0.5    
0.45    0.5    0.45    0.5    0.45    
0.5    0.45    0.5    0.45    0.5    
0.45    0.5    0.45    0.45    0.5    
0.45    0.5    0.45    0.5    0.45    
0.5    0.45    0.5    0.45    0.5    
0.45    0.5    0.45    0.5    0.4    
0.4    0.4    0.4    0.4    0.4    
0.4    0.4    0.4    0.4    0.4    
0.4    0.4    0.4    0.4    0.4    
0.4    0.4    0.4    0.4    0.4    
0.4    0.4    0.4    0.4    0.4    
0.4    0.4    0.4    0.4    0.4    
0.4    0.4    0.4    0.4    0.4    
0.4    0.4    0.4    0.4    0.4    
0.4    0.4    0.4    0.4    0.4    
0.4    0.4    0.4    0.4    0.4    
0.4    0.4    0.4    0.4    0.4    
0.4    0.4    0.4    0.4    0.4    
0.4    0.4    0.4    0.4    0.4    
0.4    0.4    0.4    0.4    0.35    
0.35    0.35    0.35    0.35    0.35    
0.35    0.35    0.35    0.35    0.35    
0.35    0.35    0.35    0.35    0.35    
0.35    0.35    0.35    0.35    0.35    
0.35    0.35    0.35    0.35    0.35    
0.35    0.35    0.35    0.35    0.35    
0.35    0.35    0.35    0.35    0.35    
0.35    0.35    0.35    0.35    0.35    
0.35    0.35    0.35    0.35    0.35    
0.35    0.35    0.35    0.35    0.35    
0.35    0.35    0.35    0.35    0.35    
0.35    0.35    0.35    0.35    0.35    
0.35    0.35    0.35    0.35    0.35    
0.3    0.3    0.3    0.3    0.3    
0.3    0.3    0.3    0.3    0.3    
0.3    0.3    0.3    0.3    0.3    
0.3    0.3    0.3    0.3    0.3    
0.3    0.3    0.3    0.3    0.3    
0.3    0.3    0.3    0.3    0.3    
0.3    0.3    0.3    0.3    0.3    
0.3    0.3    0.3    0.3    0.3    
0.3    0.3    0.3    0.3    0.3    
0.3    0.3    0.3    0.3    0.3    
0.3    0.3    0.3    0.3    0.3    
0.3    0.3    0.3    0.3    0.3    
0.3    0.3    0.25    0.25    0.25    
0.25    0.25    0.25    0.25    0.25    
0.25    0.25    0.25    0.25    0.25    
0.25    0.25    0.25    0.25    0.25    
0.25    0.25    0.25    0.25    0.25    
0.25    0.25    0.25    0.25    0.25    
0.25    0.25    0.25    0.25    0.25    
0.25    0.25    0.25    0.25    0.25    
0.25    0.25    0.25    0.25    0.25    
0.25    0.25    0.25    0.25    0.25    
0.25    0.25    0.25    0.25    0.25    
0.25    0.2    0.2    0.2    0.2    
0.2    0.2    0.2    0.2    0.2    
0.2    0.2    0.2    0.2    0.2    
0.2    0.2    0.2    0.2    0.2    
0.2    0.2    0.2    0.2    0.2    
0.2    0.2    0.2    0.2    0.2    
0.15    0.15    0.15    0.15    0.15    
0.15    0.15    0.15    0.15    0.15    
0.15    0.15    0.15    0.15    0.15    
0.1    0.1    0.1    0.1    0.1    
0.1    0.1    0.1    0.1    0.1    
0.1    
0.15    0.1    0.1    0.15    0.1    
0.1    0.05    0.05    0.15    0.15    
0.05    0.05    -2.4980018054e-17    -2.7755575616e-17    0.1    
0.1    0.15    0.15    0.2    0.2    
0.0    0.0    -0.05    -0.05    -0.05    
0.05    0.05    0.1    0.1    0.15    
0.15    0.2    0.2    0.25    0.25    
0.3    0.3    -0.05    -0.05    -0.1    
-0.1    0.0    0.0    0.05    0.05    
0.1    0.1    0.15    0.15    0.2    
0.2    0.25    0.25    0.3    0.3    
-0.05    -0.05    -0.1    0.0    0.0    
0.05    0.05    0.1    0.1    0.15    
0.15    0.2    0.2    0.25    0.25    
0.3    0.3    -0.05    -0.05    -0.1    
-0.1    0.0    0.0    0.05    0.05    
0.1    0.1    0.15    0.15    0.2    
0.2    0.25    0.25    0.3    0.3    
-0.1    -0.1    -0.15    -0.15    -0.05    
-0.05    0.0    0.0    0.05    0.05    
0.1    0.1    0.15    0.15    0.2    
0.2    0.25    0.25    0.3    0.3    
-0.1    -0.1    -0.15    -0.05    -0.05    
-1.0408340856e-17    0.0    0.05    0.05    0.1    
0.1    0.15    0.15    0.2    0.2    
0.25    0.25    0.3    0.3    0.15    
0.1    0.1    0.05    0.15    -2.2204460493e-17    
-0.05    0.05    0.1    0.15    0.2    
0.2    -0.05    -0.1    -0.1    0.0    
0.05    0.1    0.15    0.2    0.25    
0.3    -0.1    -0.05    0.0    0.05    
0.1    0.15    0.2    0.25    0.3    
-0.1    -0.05    0.0    0.05    0.1    
0.15    0.2    0.25    0.3    -0.1    
-0.15    -0.05    0.0    0.05    0.1    
0.15    0.2    0.25    0.3    -0.15    
-0.1    -0.05    0.0    0.05    0.1    
0.15    0.2    0.25    0.3    -0.15    
-0.1    -0.05    -6.9388939039e-18    0.05    0.1    
0.15    0.2    0.25    0.3    0.1    
0.05    0.15    0.2    -0.05    -0.1    
-1.9428902931e-17    0.05    0.1    0.15    0.2    
-0.1    -0.05    0.0    0.05    0.1    
0.15    0.2    -0.1    -0.05    0.0    
0.05    0.1    0.15    0.2    0.25    
0.3    -0.1    -0.05    0.0    0.05    
0.1    0.15    0.2    0.25    0.3    
-0.1    -0.15    -0.05    0.0    0.05    
0.1    0.15    0.2    0.25    0.3    
-0.15    -0.1    -0.05    0.0    0.05    
0.1    0.15    0.2    0.25    0.3    
-0.15    -0.1    -0.05    -1.3877787808e-17    0.05    
0.1    0.15    0.2    0.25    0.3    
0.2    0.15    -0.05    -0.1    -1.6653345369e-17    
0.05    0.1    0.15    0.2    -0.1    
-0.05    0.0    0.05    0.1    0.15    
0.2    -0.1    -0.05    0.0    0.05    
0.1    0.15    0.2    -0.1    -0.05    
0.0    0.05    0.1    0.15    0.2    
0.25    0.3    -0.1    -0.15    -0.05    
0.0    0.05    0.1    0.15    0.2    
0.25    0.3    -0.15    -0.1    -0.05    
0.0    0.05    0.1    0.15    0.2    
0.25    0.3    -0.15    -0.1    -0.05    
-6.9388939039e-18    0.05    0.1    0.15    0.2    
0.25    0.3    0.2    0.15    -0.05    
-0.1    0.1    0.05    0.15    0.2    
-0.1    -0.05    0.05    0.1    0.15    
0.2    -0.1    -0.05    0.0    0.05    
0.1    0.15    0.2    -0.1    -0.05    
0.0    0.05    0.1    0.15    0.2    
0.25    -0.05    0.0    0.05    0.1    
0.15    0.2    0.25    -0.1    -0.15    
-0.05    0.0    0.05    0.1    0.15    
0.2    0.25    -0.15    -0.1    -0.05    
6.9388939039e-18    0.05    0.1    0.15    0.2    
0.25    0.2    0.15    0.15    0.1    
0.2    0.05    0.0    0.1    0.15    
0.2    0.25    0.0    0.05    0.1    
0.15    0.2    0.25    0.0    0.05    
0.1    0.15    0.2    0.25    -1.3877787808e-17    
0.05    0.1    0.15    0.2    0.25    
0.05    0.0    0.1    0.15    0.0    
0.05    0.1    0.15    0.0    0.05    
0.1    0.15    0.05    0.1    0.15    
0.05    0.0    0.1    0.0    0.05    
0.1    0.0    0.05    0.1    0.05    
0.1    
-0.1    -0.1    -0.1    -0.1    -0.15    
-0.15    -0.15    -0.15    -0.15    -0.15    
-0.2    -0.2    -0.2    -0.2    -0.2    
-0.2    -0.2    -0.2    -0.2    -0.2    
-0.25    -0.25    -0.25    -0.25    -0.2    
-0.25    -0.25    -0.25    -0.25    -0.25    
-0.25    -0.25    -0.25    -0.25    -0.25    
-0.25    -0.25    -0.3    -0.3    -0.3    
-0.25    -0.3    -0.3    -0.3    -0.3    
-0.3    -0.3    -0.3    -0.3    -0.3    
-0.3    -0.3    -0.3    -0.3    -0.3    
-0.35    -0.35    -0.35    -0.35    -0.35    
-0.35    -0.35    -0.35    -0.35    -0.35    
-0.35    -0.35    -0.35    -0.35    -0.35    
-0.35    -0.35    -0.4    -0.4    -0.4    
-0.4    -0.4    -0.4    -0.4    -0.4    
-0.4    -0.4    -0.4    -0.4    -0.4    
-0.4    -0.4    -0.4    -0.4    -0.4    
-0.45    -0.45    -0.45    -0.4    -0.45    
-0.45    -0.45    -0.45    -0.45    -0.45    
-0.45    -0.45    -0.45    -0.45    -0.45    
-0.45    -0.45    -0.45    -0.45    -0.45    
-0.5    -0.5    -0.5    -0.5    -0.5    
-0.5    -0.5    -0.5    -0.5    -0.5    
-0.5    -0.5    -0.5    -0.5    -0.5    
-0.5    -0.5    -0.5    -0.5    -0.1    
-0.1    -0.15    -0.15    -0.15    -0.2    
-0.2    -0.2    -0.2    -0.2    -0.2    
-0.15    -0.25    -0.25    -0.2    -0.25    
-0.25    -0.25    -0.25    -0.25    -0.25    
-0.25    -0.3    -0.3    -0.3    -0.3    
-0.3    -0.3    -0.3    -0.3    -0.3    
-0.35    -0.35    -0.35    -0.35    -0.35    
-0.35    -0.35    -0.35    -0.35    -0.4    
-0.4    -0.4    -0.4    -0.4    -0.4    
-0.4    -0.4    -0.4    -0.4    -0.45    
-0.45    -0.45    -0.45    -0.45    -0.45    
-0.45    -0.45    -0.45    -0.45    -0.5    
-0.5    -0.5    -0.5    -0.5    -0.5    
-0.5    -0.5    -0.5    -0.5    -0.15    
-0.15    -0.15    -0.15    -0.2    -0.2    
-0.2    -0.2    -0.2    -0.2    -0.2    
-0.25    -0.25    -0.25    -0.25    -0.25    
-0.25    -0.25    -0.3    -0.3    -0.3    
-0.3    -0.3    -0.3    -0.3    -0.3    
-0.3    -0.35    -0.35    -0.35    -0.35    
-0.35    -0.35    -0.35    -0.35    -0.35    
-0.4    -0.4    -0.4    -0.4    -0.4    
-0.4    -0.4    -0.4    -0.4    -0.4    
-0.45    -0.45    -0.45    -0.45    -0.45    
-0.45    -0.45    -0.45    -0.45    -0.45    
-0.5    -0.5    -0.5    -0.5    -0.5    
-0.5    -0.5    -0.5    -0.5    -0.5    
-0.15    -0.15    -0.2    -0.2    -0.2    
-0.2    -0.2    -0.2    -0.2    -0.25    
-0.25    -0.25    -0.25    -0.25    -0.25    
-0.25    -0.3    -0.3    -0.3    -0.3    
-0.3    -0.3    -0.3    -0.35    -0.35    
-0.35    -0.35    -0.35    -0.35    -0.35    
-0.35    -0.35    -0.4    -0.4    -0.4    
-0.4    -0.4    -0.4    -0.4    -0.4    
-0.4    -0.4    -0.45    -0.45    -0.45    
-0.45    -0.45    -0.45    -0.45    -0.45    
-0.45    -0.45    -0.5    -0.5    -0.5    
-0.5    -0.5    -0.5    -0.5    -0.5    
-0.5    -0.5    -0.15    -0.15    -0.2    
-0.2    -0.2    -0.2    -0.2    -0.2    
-0.25    -0.25    -0.25    -0.25    -0.25    
-0.25    -0.3    -0.3    -0.3    -0.3    
-0.3    -0.3    -0.3    -0.35    -0.35    
-0.35    -0.35    -0.35    -0.35    -0.35    
-0.35    -0.4    -0.4    -0.4    -0.4    
-0.4    -0.4    -0.4    -0.45    -0.45    
-0.45    -0.45    -0.45    -0.45    -0.45    
-0.45    -0.45    -0.5    -0.5    -0.5    
-0.5    -0.5    -0.5    -0.5    -0.5    
-0.5    -0.25    -0.25    -0.3    -0.3    
-0.3    -0.35    -0.35    -0.35    -0.35    
-0.35    -0.35    -0.4    -0.4    -0.4    
-0.4    -0.4    -0.4    -0.45    -0.45    
-0.45    -0.45    -0.45    -0.45    -0.5    
-0.5    -0.5    -0.5    -0.5    -0.5    
-0.35    -0.35    -0.35    -0.35    -0.4    
-0.4    -0.4    -0.4    -0.45    -0.45    
-0.45    -0.45    -0.5    -0.5    -0.5    
-0.35    -0.35    -0.35    -0.4    -0.4    
-0.4    -0.45    -0.45    -0.45    -0.5    
-0.5    
390.575488722    390.029338583    370.65667638    392.716709736    393.354501054    
378.503184791    391.341096659    372.272136404    394.854442009    395.520293724    
384.782479666    394.1785303    380.390728674    388.570771759    392.352248742    
374.534666325    389.795814583    366.561066537    396.528125543    397.166643938    
389.717426555    396.326647666    386.754310549    395.195111419    382.827557153    
393.630953093    377.519346557    386.082471078    391.396881196    370.16832931    
380.403324142    388.067507205    359.682366748    382.814113084    344.170959912    
397.898637078    391.609631676    397.263636818    389.140847756    396.398520626    
385.831128247    395.183887763    381.288542534    393.411343756    374.872549731    
390.690486253    365.48859883    386.222703136    351.177774357    398.706056824    
393.778038327    398.309255315    391.912397038    397.763647502    389.383360883    
396.987319191    385.85907767    395.831790059    380.776361017    394.004147041    
373.127702629    390.862454233    361.010324778    399.002467086    399.663493273    
397.042840027    399.562926783    396.169111509    399.427807337    395.003638719    
399.241021283    393.409416096    398.973067925    391.158841085    398.568883735    
387.850836692    397.914421833    382.729876908    396.738196848    374.264725412    
399.002467088    398.706056825    398.309255314    397.763647502    396.987319191    
395.831790059    394.004147041    390.862454233    365.278584785    355.461359887    
388.132547812    380.708465908    375.333325382    368.341983091    359.123623132    
346.777104692    391.991180216    393.487540468    386.956072322    383.288763538    
378.537258447    372.291298606    363.944735292    352.578831722    395.18565673    
389.394858287    386.367293015    382.410971373    377.151349753    370.018199913    
360.116585502    346.003692329    325.309785364    392.161253219    389.892795937    
386.904859732    382.889625625    377.363472738    369.536655628    358.07056799    
340.623962401    397.711681025    399.228795839    396.268184702    395.185656728    
393.778038328    391.912397041    389.383360887    385.859077673    380.77636102    
373.127702631    361.010324777    398.742359003    398.376083645    397.898637079    
397.263636819    396.398520628    395.183887764    393.411343756    390.690486253    
386.222703134    342.486281235    324.23394667    384.891511001    379.547278939    
373.955615684    366.822142053    357.63433805    345.681889533    329.970069853    
382.345749352    377.446065023    371.144881261    362.944907915    352.137111839    
337.696478932    385.649488159    381.606737292    376.364219549    369.466874753    
360.244513655    347.689583694    389.394858272    386.367293006    382.410971372    
377.151349752    370.018199912    360.116585503    346.00369233    325.309785358    
394.940450302    393.487540458    391.609631665    389.140847755    385.831128252    
381.288542538    374.872549733    365.48859883    351.17777435    398.294989999    
397.803465612    397.166643936    396.326647664    395.19511142    393.630953094    
391.396881196    388.067507205    382.814113081    309.365770552    374.827117594    
348.507501207    316.328585913    378.276417477    325.670055461    382.345749347    
377.446065015    371.144881256    362.944907902    352.137111831    337.696478916    
383.288763505    378.537258425    372.291298591    363.944735283    352.578831713    
336.769756615    386.754310534    382.827557148    377.519346556    370.168329307    
359.68236674    397.897993746    397.299001254    396.528125534    395.520293718    
394.178530297    392.35224874    389.795814582    386.082471075    316.3285859    
345.681889507    329.970069811    375.333325357    368.341983067    359.123623103    
346.777104662    329.942755666    384.782479647    380.390728662    374.534666314    
366.561066528    355.414084753    394.854442003    393.354501049    391.341096653    
388.570771757    384.628284867    372.807623138    365.27858474    355.461359848    
383.229523561    378.503184763    372.272136388    392.716709729    390.575488715    
370.944990943    363.049753156    382.085152828    377.131425534    392.253487298    

0.125    0.125    0.125    0.075    0.075    
0.075    0.125    0.125    0.025    0.025    
0.025    0.075    0.075    0.175    0.125    
0.125    0.175    0.175    -0.025    -0.025    
-0.025    0.025    0.025    0.075    0.075    
0.125    0.125    0.225    0.175    0.175    
0.275    0.225    0.225    0.275    0.275    
-0.025    -0.025    0.025    0.025    0.075    
0.075    0.125    0.125    0.175    0.175    
0.225    0.225    0.275    0.275    -0.025    
-0.025    0.025    0.025    0.075    0.075    
0.125    0.125    0.175    0.175    0.225    
0.225    0.275    0.275    -0.075    -0.075    
-0.075    -0.025    -0.025    0.025    0.025    
0.075    0.075    0.125    0.125    0.175    
0.175    0.225    0.225    0.275    0.275    
-0.075    -0.025    0.025    0.075    0.125    
0.175    0.225    0.275    0.075    0.125    
-0.025    -0.025    0.025    0.075    0.125    
0.175    -0.075    -0.075    -0.075    -0.025    
0.025    0.075    0.125    0.175    -0.075    
-0.075    -0.025    0.025    0.075    0.125    
0.175    0.225    0.275    -0.075    -0.025    
0.025    0.075    0.125    0.175    0.225    
0.275    -0.125    -0.125    -0.125    -0.075    
-0.025    0.025    0.075    0.125    0.175    
0.225    0.275    -0.125    -0.075    -0.025    
0.025    0.075    0.125    0.175    0.225    
0.275    0.175    0.175    -0.075    -0.075    
-0.025    0.025    0.075    0.125    0.175    
-0.075    -0.025    0.025    0.075    0.125    
0.175    -0.075    -0.025    0.025    0.075    
0.125    0.175    -0.075    -0.025    0.025    
0.075    0.125    0.175    0.225    0.275    
-0.125    -0.075    -0.025    0.025    0.075    
0.125    0.175    0.225    0.275    -0.125    
-0.075    -0.025    0.025    0.075    0.125    
0.175    0.225    0.275    0.175    -0.075    
0.075    0.175    -0.075    0.175    -0.075    
-0.025    0.025    0.075    0.125    0.175    
-0.025    0.025    0.075    0.125    0.175    
0.225    0.025    0.075    0.125    0.175    
0.225    -0.125    -0.075    -0.025    0.025    
0.075    0.125    0.175    0.225    0.175    
0.125    0.175    0.025    0.075    0.125    
0.175    0.225    0.025    0.075    0.125    
0.175    0.225    0.025    0.075    0.125    
0.175    0.225    0.025    0.075    0.125    
0.025    0.075    0.125    0.075    0.125    
0.025    0.075    0.025    0.075    0.075    

9     5     6     10     17     15     16     18     
10     6     5     9     4     3     2     1     
5     9     1     2     132     134     130     131     
6     16     15     5     8     12     11     7     
15     11     12     16     28     26     27     29     
11     15     5     7     137     138     132     133     
17     15     16     18     30     28     29     31     
15     17     9     5     138     139     134     132     
12     27     26     11     14     22     21     13     
26     21     22     27     44     42     43     45     
21     26     11     13     145     146     137     135     
28     26     27     29     46     44     45     47     
26     28     15     11     146     147     138     137     
17     30     31     18     19     32     33     20     
30     28     29     31     48     46     47     49     
28     30     17     15     147     148     139     138     
32     30     31     33     50     48     49     51     
30     32     19     17     148     149     140     139     
22     43     42     21     24     39     38     23     
42     38     39     43     59     56     57     60     
38     42     21     23     153     154     145     142     
44     42     43     45     61     59     60     62     
42     44     26     21     154     155     146     145     
46     44     45     47     63     61     62     64     
44     46     28     26     155     156     147     146     
48     46     47     49     65     63     64     66     
46     48     30     28     156     157     148     147     
32     50     51     33     34     52     53     35     
50     48     49     51     67     65     66     68     
48     50     32     30     157     158     149     148     
34     52     53     35     36     54     55     37     
52     50     51     53     69     67     68     70     
50     52     34     32     158     159     150     149     
54     52     53     55     71     69     70     72     
52     54     36     34     159     160     151     150     
59     56     57     60     77     73     74     78     
56     59     42     38     162     163     154     153     
61     59     60     62     79     77     78     80     
59     61     44     42     163     164     155     154     
63     61     62     64     81     79     80     82     
61     63     46     44     164     165     156     155     
65     63     64     66     83     81     82     84     
63     65     48     46     165     166     157     156     
67     65     66     68     85     83     84     86     
65     67     50     48     166     167     158     157     
69     67     68     70     87     85     86     88     
67     69     52     50     167     168     159     158     
71     69     70     72     89     87     88     90     
69     71     54     52     168     169     160     159     
77     73     74     78     97     95     96     98     
73     77     59     56     172     173     163     162     
79     77     78     80     99     97     98     100     
77     79     61     59     173     174     164     163     
81     79     80     82     101     99     100     102     
79     81     63     61     174     175     165     164     
83     81     82     84     103     101     102     104     
81     83     65     63     175     176     166     165     
85     83     84     86     105     103     104     106     
83     85     67     65     176     177     167     166     
87     85     86     88     107     105     106     108     
85     87     69     67     177     178     168     167     
89     87     88     90     109     107     108     110     
87     89     71     69     178     179     169     168     
74     96     95     73     76     92     91     75     
95     91     92     96     114     111     112     115     
91     95     73     75     181     182     172     170     
97     95     96     98     116     114     115     117     
95     97     77     73     182     183     173     172     
99     97     98     100     118     116     117     119     
97     99     79     77     183     184     174     173     
101     99     100     102     120     118     119     121     
99     101     81     79     184     185     175     174     
103     101     102     104     122     120     121     123     
101     103     83     81     185     186     176     175     
105     103     104     106     124     122     123     125     
103     105     85     83     186     187     177     176     
107     105     106     108     126     124     125     127     
105     107     87     85     187     188     178     177     
109     107     108     110     128     126     127     129     
107     109     89     87     188     189     179     178     
111     114     95     91     191     192     182     181     
114     116     97     95     192     193     183     182     
116     118     99     97     193     194     184     183     
118     120     101     99     194     195     185     184     
120     122     103     101     195     196     186     185     
122     124     105     103     196     197     187     186     
124     126     107     105     197     198     188     187     
126     128     109     107     198     199     189     188     
137     138     132     133     207     208     200     201     
138     139     134     132     208     209     202     200     
13     21     145     135     25     23     142     136     
142     145     135     136     212     213     206     204     
145     146     137     135     213     214     207     206     
146     147     138     137     214     215     208     207     
147     148     139     138     215     216     209     208     
148     149     140     139     216     217     210     209     
23     38     153     142     41     40     152     143     
153     152     40     38     162     161     58     56     
152     153     142     143     218     219     212     211     
153     154     145     142     219     220     213     212     
154     155     146     145     220     221     214     213     
155     156     147     146     221     222     215     214     
156     157     148     147     222     223     216     215     
157     158     149     148     223     224     217     216     
162     161     58     56     172     170     75     73     
161     162     153     152     227     228     219     218     
162     163     154     153     228     229     220     219     
163     164     155     154     229     230     221     220     
164     165     156     155     230     231     222     221     
165     166     157     156     231     232     223     222     
166     167     158     157     232     233     224     223     
167     168     159     158     233     234     225     224     
168     169     160     159     234     235     226     225     
170     172     162     161     236     238     228     227     
172     173     163     162     238     239     229     228     
173     174     164     163     239     240     230     229     
174     175     165     164     240     241     231     230     
175     176     166     165     241     242     232     231     
176     177     167     166     242     243     233     232     
177     178     168     167     243     244     234     233     
178     179     169     168     244     245     235     234     
75     91     181     170     94     93     180     171     
181     180     93     91     191     190     113     111     
180     181     170     171     246     247     236     237     
181     182     172     170     247     248     238     236     
182     183     173     172     248     249     239     238     
183     184     174     173     249     250     240     239     
184     185     175     174     250     251     241     240     
185     186     176     175     251     252     242     241     
186     187     177     176     252     253     243     242     
187     188     178     177     253     254     244     243     
188     189     179     178     254     255     245     244     
190     191     181     180     256     257     247     246     
191     192     182     181     257     258     248     247     
192     193     183     182     258     259     249     248     
193     194     184     183     259     260     250     249     
194     195     185     184     260     261     251     250     
195     196     186     185     261     262     252     251     
196     197     187     186     262     263     253     252     
197     198     188     187     263     264     254     253     
198     199     189     188     264     265     255     254     
202     209     139     134     203     210     140     141     
209     210     203     202     273     274     266     267     
136     142     212     204     144     143     211     205     
211     212     204     205     275     276     268     269     
212     213     206     204     276     277     270     268     
213     214     207     206     277     278     271     270     
214     215     208     207     278     279     272     271     
215     216     209     208     279     280     273     272     
216     217     210     209     280     281     274     273     
218     219     212     211     282     283     276     275     
219     220     213     212     283     284     277     276     
220     221     214     213     284     285     278     277     
221     222     215     214     285     286     279     278     
222     223     216     215     286     287     280     279     
223     224     217     216     287     288     281     280     
227     228     219     218     289     290     283     282     
228     229     220     219     290     291     284     283     
229     230     221     220     291     292     285     284     
230     231     222     221     292     293     286     285     
231     232     223     222     293     294     287     286     
232     233     224     223     294     295     288     287     
236     238     228     227     298     300     290     289     
238     239     229     228     300     301     291     290     
239     240     230     229     301     302     292     291     
240     241     231     230     302     303     293     292     
241     242     232     231     303     304     294     293     
242     243     233     232     304     305     295     294     
243     244     234     233     305     306     296     295     
244     245     235     234     306     307     297     296     
246     247     236     237     308     309     298     299     
247     248     238     236     309     310     300     298     
248     249     239     238     310     311     301     300     
249     250     240     239     311     312     302     301     
250     251     241     240     312     313     303     302     
251     252     242     241     313     314     304     303     
252     253     243     242     314     315     305     304     
253     254     244     243     315     316     306     305     
254     255     245     244     316     317     307     306     
256     257     247     246     318     319     309     308     
257     258     248     247     319     320     310     309     
258     259     249     248     320     321     311     310     
259     260     250     249     321     322     312     311     
260     261     251     250     322     323     313     312     
261     262     252     251     323     324     314     313     
262     263     253     252     324     325     315     314     
263     264     254     253     325     326     316     315     
264     265     255     254     326     327     317     316     
273     274     266     267     334     335     328     329     
275     276     268     269     336     337     330     331     
278     279     272     271     338     339     332     333     
280     281     274     273     340     341     335     334     
282     283     276     275     342     343     337     336     
287     288     281     280     347     348     341     340     
289     290     283     282     349     350     343     342     
290     291     284     283     350     351     344     343     
291     292     285     284     351     352     345     344     
292     293     286     285     352     353     346     345     