Title = " tecplot file for 2D Cavity problem " 
variables = "x", "y", "z", "velX", "cellCentroidY" 
Zone T = "nmesh0" N = 402 E = 250 DATAPACKING = BLOCK, VARLOCATION = ([4-5]=CELLCENTERED), ZONETYPE=FEBRICK
0.0    0.0    0.0    0.0    0.0    
0.0    -2.7755575616e-17    0.0    0.0    0.0    
0.0    0.0    0.0    -2.7755575616e-17    0.0    
0.0    0.0    2.7755575616e-17    2.7755575616e-17    0.0    
0.0    0.0    -2.7755575616e-17    0.0    0.0    
2.7755575616e-17    0.0    0.0    -2.7755575616e-17    -2.7755575616e-17    
0.0    0.0    0.0    0.0    0.0    
0.0    0.0    -2.7755575616e-17    0.0    0.0    
2.7755575616e-17    0.0    -2.7755575616e-17    0.0    0.0    
0.0    0.0    0.0    -2.7755575616e-17    0.0    
0.0    2.7755575616e-17    0.0    -2.7755575616e-17    0.0    
0.0    0.0    0.0    0.0    -1.3877787808e-17    
0.0    6.9388939039e-18    2.0816681712e-17    0.0    -2.0816681712e-17    
-1.0408340856e-17    0.0    -0.05    -0.05    -0.05    
-0.05    -0.05    -0.05    -0.05    -0.05    
-0.05    -0.05    -0.05    -0.05    -0.05    
-0.05    -0.05    -0.05    -0.05    -0.05    
-0.05    -0.05    -0.05    -0.05    -0.05    
-0.05    -0.05    -0.05    -0.05    -0.05    
-0.05    -0.05    -0.05    -0.05    -0.05    
-0.05    -0.05    -0.05    -0.05    -0.05    
-0.05    -0.05    -0.05    -0.05    -0.05    
-0.05    -0.05    -0.05    -0.05    -0.05    
-0.05    -0.05    -0.05    -0.05    -0.05    
-0.05    -0.05    -0.05    -0.05    -0.05    
-0.05    -0.05    -0.05    -0.05    -0.05    
-0.05    -0.05    -0.05    -0.05    -0.1    
-0.1    -0.1    -0.1    -0.1    -0.1    
-0.1    -0.1    -0.1    -0.1    -0.1    
-0.1    -0.1    -0.1    -0.1    -0.1    
-0.1    -0.1    -0.1    -0.1    -0.1    
-0.1    -0.1    -0.1    -0.1    -0.1    
-0.1    -0.1    -0.1    -0.1    -0.1    
-0.1    -0.1    -0.1    -0.1    -0.1    
-0.1    -0.1    -0.1    -0.1    -0.1    
-0.1    -0.1    -0.1    -0.1    -0.1    
-0.1    -0.1    -0.1    -0.1    -0.1    
-0.1    -0.1    -0.1    -0.1    -0.1    
-0.1    -0.1    -0.1    -0.1    -0.1    
-0.1    -0.1    -0.1    -0.1    -0.1    
-0.1    -0.15    -0.15    -0.15    -0.15    
-0.15    -0.15    -0.15    -0.15    -0.15    
-0.15    -0.15    -0.15    -0.15    -0.15    
-0.15    -0.15    -0.15    -0.15    -0.15    
-0.15    -0.15    -0.15    -0.15    -0.15    
-0.15    -0.15    -0.15    -0.15    -0.15    
-0.15    -0.15    -0.15    -0.15    -0.15    
-0.15    -0.15    -0.15    -0.15    -0.15    
-0.15    -0.15    -0.15    -0.15    -0.15    
-0.15    -0.15    -0.15    -0.15    -0.15    
-0.15    -0.15    -0.15    -0.15    -0.15    
-0.15    -0.15    -0.15    -0.15    -0.15    
-0.15    -0.15    -0.15    -0.15    -0.15    
-0.15    -0.15    -0.15    -0.2    -0.2    
-0.2    -0.2    -0.2    -0.2    -0.2    
-0.2    -0.2    -0.2    -0.2    -0.2    
-0.2    -0.2    -0.2    -0.2    -0.2    
-0.2    -0.2    -0.2    -0.2    -0.2    
-0.2    -0.2    -0.2    -0.2    -0.2    
-0.2    -0.2    -0.2    -0.2    -0.2    
-0.2    -0.2    -0.2    -0.2    -0.2    
-0.2    -0.2    -0.2    -0.2    -0.2    
-0.2    -0.2    -0.2    -0.2    -0.2    
-0.2    -0.2    -0.2    -0.2    -0.2    
-0.2    -0.2    -0.2    -0.2    -0.2    
-0.2    -0.2    -0.2    -0.2    -0.2    
-0.2    -0.2    -0.2    -0.2    -0.2    
-0.25    -0.25    -0.25    -0.25    -0.25    
-0.25    -0.25    -0.25    -0.25    -0.25    
-0.25    -0.25    -0.25    -0.25    -0.25    
-0.25    -0.25    -0.25    -0.25    -0.25    
-0.25    -0.25    -0.25    -0.25    -0.25    
-0.25    -0.25    -0.25    -0.25    -0.25    
-0.25    -0.25    -0.25    -0.25    -0.25    
-0.25    -0.25    -0.25    -0.25    -0.25    
-0.25    -0.25    -0.25    -0.25    -0.25    
-0.25    -0.25    -0.25    -0.25    -0.25    
-0.25    -0.25    -0.25    -0.25    -0.25    
-0.25    -0.25    -0.25    -0.25    -0.25    
-0.25    -0.25    -0.25    -0.25    -0.25    
-0.25    -0.25    
0.0    0.05    0.05    1.2325951644e-32    0.1    
0.1    0.15    0.15    0.2    0.2    
0.0    0.05    0.1    0.15    0.2    
0.25    0.25    0.3    0.3    0.0    
0.05    0.1    0.15    0.2    0.25    
0.3    0.35    0.35    0.4    0.4    
0.45    0.45    0.5    0.5    0.0    
0.05    0.1    0.15    0.2    0.25    
0.3    0.35    0.4    0.45    0.5    
0.0    0.05    0.1    0.15    0.2    
0.25    0.3    0.35    0.4    0.45    
0.5    0.0    0.05    0.1    0.15    
0.2    0.25    0.3    0.35    0.4    
0.45    0.5    0.05    2.7755575616e-18    0.1    
0.15    0.2    0.0    0.05    0.1    
0.15    0.2    0.25    0.3    0.0    
0.05    0.1    0.15    0.2    0.25    
0.3    0.35    0.4    0.45    0.5    
0.0    0.05    0.1    0.15    0.2    
0.25    0.3    0.35    0.4    0.45    
0.5    0.0    0.05    0.1    0.15    
0.2    0.25    0.3    0.35    0.4    
0.45    0.5    0.0    0.05    0.1    
0.15    0.2    0.25    0.3    0.35    
0.4    0.45    0.5    0.0    0.05    
0.1    0.15    0.2    0.25    0.3    
0.35    0.4    0.45    0.5    0.05    
5.5511151231e-18    0.1    0.15    0.2    0.0    
0.05    0.1    0.15    0.2    0.25    
0.3    0.0    0.05    0.1    0.15    
0.2    0.25    0.3    0.35    0.4    
0.45    0.5    0.0    0.05    0.1    
0.15    0.2    0.25    0.3    0.35    
0.4    0.45    0.5    0.0    0.05    
0.1    0.15    0.2    0.25    0.3    
0.35    0.4    0.45    0.5    0.0    
0.05    0.1    0.15    0.2    0.25    
0.3    0.35    0.4    0.45    0.5    
0.0    0.05    0.1    0.15    0.2    
0.25    0.3    0.35    0.4    0.45    
0.5    0.05    8.3266726847e-18    0.1    0.15    
0.2    -2.7755575616e-17    0.05    0.1    0.15    
0.2    0.25    0.3    -2.7755575616e-17    0.05    
0.1    0.15    0.2    0.25    0.3    
0.35    0.4    0.45    0.5    0.0    
0.05    0.1    0.15    0.2    0.25    
0.3    0.35    0.4    0.45    0.5    
0.0    0.05    0.1    0.15    0.2    
0.25    0.3    0.35    0.4    0.45    
0.5    -2.7755575616e-17    0.05    0.1    0.15    
0.2    0.25    0.3    0.35    0.4    
0.45    0.5    -2.7755575616e-17    0.05    0.1    
0.15    0.2    0.25    0.3    0.35    
0.4    0.45    0.5    0.05    1.1102230246e-17    
0.1    0.15    0.2    0.0    0.05    
0.1    0.15    0.2    0.25    0.3    
0.0    0.05    0.1    0.15    0.2    
0.25    0.3    0.35    0.4    0.45    
0.5    0.0    0.05    0.1    0.15    
0.2    0.25    0.3    0.35    0.4    
0.45    0.5    0.0    0.05    0.1    
0.15    0.2    0.25    0.3    0.35    
0.4    0.45    0.5    0.0    0.05    
0.1    0.15    0.2    0.25    0.3    
0.35    0.4    0.45    0.5    0.0    
0.05    0.1    0.15    0.2    0.25    
0.3    0.35    0.4    0.45    0.5    
0.05    1.3877787808e-17    0.1    0.15    0.2    
0.0    0.05    0.1    0.15    0.2    
0.25    0.3    0.0    0.05    0.1    
0.15    0.2    0.25    0.3    0.35    
0.4    0.45    0.5    0.0    0.05    
0.1    0.15    0.2    0.25    0.3    
0.35    0.4    0.45    0.5    0.0    
0.05    0.1    0.15    0.2    0.25    
0.3    0.35    0.4    0.45    0.5    
0.0    0.05    0.1    0.15    0.2    
0.25    0.3    0.35    0.4    0.45    
0.5    0.0    0.05    0.1    0.15    
0.2    0.25    0.3    0.35    0.4    
0.45    0.5    
-0.25    -0.25    -0.2    -0.2    -0.25    
-0.2    -0.25    -0.2    -0.25    -0.2    
-0.3    -0.3    -0.3    -0.3    -0.3    
-0.3    -0.25    -0.3    -0.25    -0.35    
-0.35    -0.35    -0.35    -0.35    -0.35    
-0.35    -0.35    -0.3    -0.35    -0.3    
-0.35    -0.3    -0.35    -0.3    -0.4    
-0.4    -0.4    -0.4    -0.4    -0.4    
-0.4    -0.4    -0.4    -0.4    -0.4    
-0.45    -0.45    -0.45    -0.45    -0.45    
-0.45    -0.45    -0.45    -0.45    -0.45    
-0.45    -0.5    -0.5    -0.5    -0.5    
-0.5    -0.5    -0.5    -0.5    -0.5    
-0.5    -0.5    -0.2    -0.2    -0.2    
-0.2    -0.2    -0.25    -0.25    -0.25    
-0.25    -0.25    -0.25    -0.25    -0.3    
-0.3    -0.3    -0.3    -0.3    -0.3    
-0.3    -0.3    -0.3    -0.3    -0.3    
-0.35    -0.35    -0.35    -0.35    -0.35    
-0.35    -0.35    -0.35    -0.35    -0.35    
-0.35    -0.4    -0.4    -0.4    -0.4    
-0.4    -0.4    -0.4    -0.4    -0.4    
-0.4    -0.4    -0.45    -0.45    -0.45    
-0.45    -0.45    -0.45    -0.45    -0.45    
-0.45    -0.45    -0.45    -0.5    -0.5    
-0.5    -0.5    -0.5    -0.5    -0.5    
-0.5    -0.5    -0.5    -0.5    -0.2    
-0.2    -0.2    -0.2    -0.2    -0.25    
-0.25    -0.25    -0.25    -0.25    -0.25    
-0.25    -0.3    -0.3    -0.3    -0.3    
-0.3    -0.3    -0.3    -0.3    -0.3    
-0.3    -0.3    -0.35    -0.35    -0.35    
-0.35    -0.35    -0.35    -0.35    -0.35    
-0.35    -0.35    -0.35    -0.4    -0.4    
-0.4    -0.4    -0.4    -0.4    -0.4    
-0.4    -0.4    -0.4    -0.4    -0.45    
-0.45    -0.45    -0.45    -0.45    -0.45    
-0.45    -0.45    -0.45    -0.45    -0.45    
-0.5    -0.5    -0.5    -0.5    -0.5    
-0.5    -0.5    -0.5    -0.5    -0.5    
-0.5    -0.2    -0.2    -0.2    -0.2    
-0.2    -0.25    -0.25    -0.25    -0.25    
-0.25    -0.25    -0.25    -0.3    -0.3    
-0.3    -0.3    -0.3    -0.3    -0.3    
-0.3    -0.3    -0.3    -0.3    -0.35    
-0.35    -0.35    -0.35    -0.35    -0.35    
-0.35    -0.35    -0.35    -0.35    -0.35    
-0.4    -0.4    -0.4    -0.4    -0.4    
-0.4    -0.4    -0.4    -0.4    -0.4    
-0.4    -0.45    -0.45    -0.45    -0.45    
-0.45    -0.45    -0.45    -0.45    -0.45    
-0.45    -0.45    -0.5    -0.5    -0.5    
-0.5    -0.5    -0.5    -0.5    -0.5    
-0.5    -0.5    -0.5    -0.2    -0.2    
-0.2    -0.2    -0.2    -0.25    -0.25    
-0.25    -0.25    -0.25    -0.25    -0.25    
-0.3    -0.3    -0.3    -0.3    -0.3    
-0.3    -0.3    -0.3    -0.3    -0.3    
-0.3    -0.35    -0.35    -0.35    -0.35    
-0.35    -0.35    -0.35    -0.35    -0.35    
-0.35    -0.35    -0.4    -0.4    -0.4    
-0.4    -0.4    -0.4    -0.4    -0.4    
-0.4    -0.4    -0.4    -0.45    -0.45    
-0.45    -0.45    -0.45    -0.45    -0.45    
-0.45    -0.45    -0.45    -0.45    -0.5    
-0.5    -0.5    -0.5    -0.5    -0.5    
-0.5    -0.5    -0.5    -0.5    -0.5    
-0.2    -0.2    -0.2    -0.2    -0.2    
-0.25    -0.25    -0.25    -0.25    -0.25    
-0.25    -0.25    -0.3    -0.3    -0.3    
-0.3    -0.3    -0.3    -0.3    -0.3    
-0.3    -0.3    -0.3    -0.35    -0.35    
-0.35    -0.35    -0.35    -0.35    -0.35    
-0.35    -0.35    -0.35    -0.35    -0.4    
-0.4    -0.4    -0.4    -0.4    -0.4    
-0.4    -0.4    -0.4    -0.4    -0.4    
-0.45    -0.45    -0.45    -0.45    -0.45    
-0.45    -0.45    -0.45    -0.45    -0.45    
-0.45    -0.5    -0.5    -0.5    -0.5    
-0.5    -0.5    -0.5    -0.5    -0.5    
-0.5    -0.5    
326.821253286    341.378764581    349.123667813    342.548292987    308.868237338    
336.184476272    328.189823631    286.788282794    320.029414005    310.433239508    
299.839243711    288.525153224    358.41631055    350.132705024    347.580338061    
337.367708425    333.869412387    321.385700475    274.608974258    316.421077919    
301.348469731    243.144258912    294.074178485    276.2230668    265.260834471    
244.77890482    369.116163576    359.236083535    360.88788073    348.543610478    
350.340051002    334.976181012    336.66663103    317.65592406    318.681343424    
295.398662499    227.905960162    294.573488611    266.606286345    179.467810136    
261.504389625    229.170180803    117.518883432    215.043828533    180.521050136    
41.7466765965    148.852203439    118.224386926    56.6802128704    41.99589907    
380.962327199    369.72165904    375.802197289    361.600653803    369.115610278    
351.160720648    360.306234967    337.584447895    348.4240465    319.66837259    
331.841918975    295.578956639    307.546826003    262.451844885    269.559460482    
215.835279029    205.634585074    149.383507311    92.614255956    56.8681412372    
393.565572673    381.333989426    391.804869409    376.240298886    389.508743687    
369.620824485    386.452614385    360.872272692    382.256740749    349.033994446    
376.200619924    332.464613894    366.693450478    308.134910481    349.520294704    
270.051768112    311.181340377    205.965665124    200.639247434    92.7314903613    
393.690896162    391.952702831    389.679368071    386.643966921    382.463163712    
376.411609359    366.892962244    349.687516894    311.293915053    200.679135704    
344.907629891    330.966320877    313.630368946    292.103227681    352.169336334    
339.769934897    324.159190304    304.46173027    279.587018372    248.225694882    
360.891567844    350.5006981    337.241718059    320.206705347    298.164146773    
269.450178919    231.87808292    182.807174017    119.773425219    42.5470731793    
370.944990823    363.049753092    352.842165719    339.482766375    321.732830659    
297.709133527    264.487352772    217.559675224    150.555368131    57.2858790511    
382.085152782    377.131425516    370.656676352    362.044167453    350.311497304    
333.786293477    309.401447745    271.127776668    206.698724835    92.9932345066    
393.944234434    392.253487295    390.029338574    387.04034959    382.895834512    
376.859905742    367.323248494    350.053678145    311.543747274    200.768432782    
348.491156633    335.222082363    318.586625768    297.727064066    355.265321373    
343.456355461    328.465689273    309.365770311    284.977606213    253.859540349    
363.410281957    353.507604281    340.765367869    324.233946541    302.609484881    
274.117729121    236.425987128    186.738634014    122.494630062    43.5292344629    
372.807622966    365.278584613    355.461359784    342.486281175    325.061067381    
301.219188691    267.923932342    220.545100745    152.630997153    58.0373363034    
383.229523474    378.503184704    372.272136365    363.901442403    352.37586328    
335.97116264    311.549104575    273.00136594    208.006557299    93.4681145158    
394.330306268    392.716709713    390.575488707    387.669139668    383.595925238    
377.60235435    368.05474558    350.693457685    311.991480098    200.931344768    
353.334489722    341.044133517    325.471145868    305.687838734    359.454409197    
348.507500718    334.460826001    316.328585626    292.816954089    262.288474725    
366.822141669    357.634337715    345.68188928    329.970069651    309.102413296    
281.141994801    243.507484546    193.08769817    127.044891798    45.2148436117    
375.333325118    368.341982873    359.123622961    346.777104561    329.942755587    
306.532107128    273.316860154    225.415999813    156.14699038    59.3471289434    
384.782479511    380.390728551    374.53466623    366.561066471    355.414084714    
339.294171457    314.941973199    276.086198665    210.248661251    94.3083287301    
394.854441959    393.354501011    391.341096624    388.570771736    384.628284853    
378.734741246    369.215053955    351.752934028    312.765253659    201.222730747    

0.075    0.025    0.025    0.025    0.125    
0.075    0.075    0.175    0.125    0.125    
0.175    0.175    0.025    0.025    0.075    
0.075    0.125    0.125    0.225    0.175    
0.175    0.275    0.225    0.225    0.275    
0.275    0.025    0.025    0.075    0.075    
0.125    0.125    0.175    0.175    0.225    
0.225    0.325    0.275    0.275    0.375    
0.325    0.325    0.425    0.375    0.375    
0.475    0.425    0.425    0.475    0.475    
0.025    0.025    0.075    0.075    0.125    
0.125    0.175    0.175    0.225    0.225    
0.275    0.275    0.325    0.325    0.375    
0.375    0.425    0.425    0.475    0.475    
0.025    0.025    0.075    0.075    0.125    
0.125    0.175    0.175    0.225    0.225    
0.275    0.275    0.325    0.325    0.375    
0.375    0.425    0.425    0.475    0.475    
0.025    0.075    0.125    0.175    0.225    
0.275    0.325    0.375    0.425    0.475    
0.025    0.075    0.125    0.175    0.025    
0.075    0.125    0.175    0.225    0.275    
0.025    0.075    0.125    0.175    0.225    
0.275    0.325    0.375    0.425    0.475    
0.025    0.075    0.125    0.175    0.225    
0.275    0.325    0.375    0.425    0.475    
0.025    0.075    0.125    0.175    0.225    
0.275    0.325    0.375    0.425    0.475    
0.025    0.075    0.125    0.175    0.225    
0.275    0.325    0.375    0.425    0.475    
0.025    0.075    0.125    0.175    0.025    
0.075    0.125    0.175    0.225    0.275    
0.025    0.075    0.125    0.175    0.225    
0.275    0.325    0.375    0.425    0.475    
0.025    0.075    0.125    0.175    0.225    
0.275    0.325    0.375    0.425    0.475    
0.025    0.075    0.125    0.175    0.225    
0.275    0.325    0.375    0.425    0.475    
0.025    0.075    0.125    0.175    0.225    
0.275    0.325    0.375    0.425    0.475    
0.025    0.075    0.125    0.175    0.025    
0.075    0.125    0.175    0.225    0.275    
0.025    0.075    0.125    0.175    0.225    
0.275    0.325    0.375    0.425    0.475    
0.025    0.075    0.125    0.175    0.225    
0.275    0.325    0.375    0.425    0.475    
0.025    0.075    0.125    0.175    0.225    
0.275    0.325    0.375    0.425    0.475    
0.025    0.075    0.125    0.175    0.225    
0.275    0.325    0.375    0.425    0.475    

68     74     2     3     70     75     5     6     
3     2     74     68     4     1     73     69     
74     73     1     2     81     80     11     12     
73     74     68     69     140     141     135     136     
70     75     5     6     71     76     7     8     
75     74     2     5     82     81     12     13     
74     75     70     68     141     142     137     135     
71     76     7     8     72     77     9     10     
76     75     5     7     83     82     13     14     
75     76     71     70     142     143     138     137     
77     76     7     9     84     83     14     15     
76     77     72     71     143     144     139     138     
81     80     11     12     92     91     20     21     
80     81     74     73     147     148     141     140     
82     81     12     13     93     92     21     22     
81     82     75     74     148     149     142     141     
83     82     13     14     94     93     22     23     
82     83     76     75     149     150     143     142     
77     84     15     9     78     85     16     17     
84     83     14     15     95     94     23     24     
83     84     77     76     150     151     144     143     
78     85     16     17     79     86     18     19     
85     84     15     16     96     95     24     25     
84     85     78     77     151     152     145     144     
86     85     16     18     97     96     25     26     
85     86     79     78     152     153     146     145     
92     91     20     21     103     102     35     36     
91     92     81     80     158     159     148     147     
93     92     21     22     104     103     36     37     
92     93     82     81     159     160     149     148     
94     93     22     23     105     104     37     38     
93     94     83     82     160     161     150     149     
95     94     23     24     106     105     38     39     
94     95     84     83     161     162     151     150     
96     95     24     25     107     106     39     40     
95     96     85     84     162     163     152     151     
86     97     26     18     87     98     27     28     
97     96     25     26     108     107     40     41     
96     97     86     85     163     164     153     152     
87     98     27     28     88     99     29     30     
98     97     26     27     109     108     41     42     
97     98     87     86     164     165     154     153     
88     99     29     30     89     100     31     32     
99     98     27     29     110     109     42     43     
98     99     88     87     165     166     155     154     
89     100     31     32     90     101     33     34     
100     99     29     31     111     110     43     44     
99     100     89     88     166     167     156     155     
101     100     31     33     112     111     44     45     
100     101     90     89     167     168     157     156     
103     102     35     36     114     113     46     47     
102     103     92     91     169     170     159     158     
104     103     36     37     115     114     47     48     
103     104     93     92     170     171     160     159     
105     104     37     38     116     115     48     49     
104     105     94     93     171     172     161     160     
106     105     38     39     117     116     49     50     
105     106     95     94     172     173     162     161     
107     106     39     40     118     117     50     51     
106     107     96     95     173     174     163     162     
108     107     40     41     119     118     51     52     
107     108     97     96     174     175     164     163     
109     108     41     42     120     119     52     53     
108     109     98     97     175     176     165     164     
110     109     42     43     121     120     53     54     
109     110     99     98     176     177     166     165     
111     110     43     44     122     121     54     55     
110     111     100     99     177     178     167     166     
112     111     44     45     123     122     55     56     
111     112     101     100     178     179     168     167     
114     113     46     47     125     124     57     58     
113     114     103     102     180     181     170     169     
115     114     47     48     126     125     58     59     
114     115     104     103     181     182     171     170     
116     115     48     49     127     126     59     60     
115     116     105     104     182     183     172     171     
117     116     49     50     128     127     60     61     
116     117     106     105     183     184     173     172     
118     117     50     51     129     128     61     62     
117     118     107     106     184     185     174     173     
119     118     51     52     130     129     62     63     
118     119     108     107     185     186     175     174     
120     119     52     53     131     130     63     64     
119     120     109     108     186     187     176     175     
121     120     53     54     132     131     64     65     
120     121     110     109     187     188     177     176     
122     121     54     55     133     132     65     66     
121     122     111     110     188     189     178     177     
123     122     55     56     134     133     66     67     
122     123     112     111     189     190     179     178     
124     125     114     113     191     192     181     180     
125     126     115     114     192     193     182     181     
126     127     116     115     193     194     183     182     
127     128     117     116     194     195     184     183     
128     129     118     117     195     196     185     184     
129     130     119     118     196     197     186     185     
130     131     120     119     197     198     187     186     
131     132     121     120     198     199     188     187     
132     133     122     121     199     200     189     188     
133     134     123     122     200     201     190     189     
140     141     135     136     207     208     202     203     
141     142     137     135     208     209     204     202     
142     143     138     137     209     210     205     204     
143     144     139     138     210     211     206     205     
147     148     141     140     214     215     208     207     
148     149     142     141     215     216     209     208     
149     150     143     142     216     217     210     209     
150     151     144     143     217     218     211     210     
151     152     145     144     218     219     212     211     
152     153     146     145     219     220     213     212     
158     159     148     147     225     226     215     214     
159     160     149     148     226     227     216     215     
160     161     150     149     227     228     217     216     
161     162     151     150     228     229     218     217     
162     163     152     151     229     230     219     218     
163     164     153     152     230     231     220     219     
164     165     154     153     231     232     221     220     
165     166     155     154     232     233     222     221     
166     167     156     155     233     234     223     222     
167     168     157     156     234     235     224     223     
169     170     159     158     236     237     226     225     
170     171     160     159     237     238     227     226     
171     172     161     160     238     239     228     227     
172     173     162     161     239     240     229     228     
173     174     163     162     240     241     230     229     
174     175     164     163     241     242     231     230     
175     176     165     164     242     243     232     231     
176     177     166     165     243     244     233     232     
177     178     167     166     244     245     234     233     
178     179     168     167     245     246     235     234     
180     181     170     169     247     248     237     236     
181     182     171     170     248     249     238     237     
182     183     172     171     249     250     239     238     
183     184     173     172     250     251     240     239     
184     185     174     173     251     252     241     240     
185     186     175     174     252     253     242     241     
186     187     176     175     253     254     243     242     
187     188     177     176     254     255     244     243     
188     189     178     177     255     256     245     244     
189     190     179     178     256     257     246     245     
191     192     181     180     258     259     248     247     
192     193     182     181     259     260     249     248     
193     194     183     182     260     261     250     249     
194     195     184     183     261     262     251     250     
195     196     185     184     262     263     252     251     
196     197     186     185     263     264     253     252     
197     198     187     186     264     265     254     253     
198     199     188     187     265     266     255     254     
199     200     189     188     266     267     256     255     
200     201     190     189     267     268     257     256     
207     208     202     203     274     275     269     270     
208     209     204     202     275     276     271     269     
209     210     205     204     276     277     272     271     
210     211     206     205     277     278     273     272     
214     215     208     207     281     282     275     274     
215     216     209     208     282     283     276     275     
216     217     210     209     283     284     277     276     
217     218     211     210     284     285     278     277     
218     219     212     211     285     286     279     278     
219     220     213     212     286     287     280     279     
225     226     215     214     292     293     282     281     
226     227     216     215     293     294     283     282     
227     228     217     216     294     295     284     283     
228     229     218     217     295     296     285     284     
229     230     219     218     296     297     286     285     
230     231     220     219     297     298     287     286     
231     232     221     220     298     299     288     287     
232     233     222     221     299     300     289     288     
233     234     223     222     300     301     290     289     
234     235     224     223     301     302     291     290     
236     237     226     225     303     304     293     292     
237     238     227     226     304     305     294     293     
238     239     228     227     305     306     295     294     
239     240     229     228     306     307     296     295     
240     241     230     229     307     308     297     296     
241     242     231     230     308     309     298     297     
242     243     232     231     309     310     299     298     
243     244     233     232     310     311     300     299     
244     245     234     233     311     312     301     300     
245     246     235     234     312     313     302     301     
247     248     237     236     314     315     304     303     
248     249     238     237     315     316     305     304     
249     250     239     238     316     317     306     305     
250     251     240     239     317     318     307     306     
251     252     241     240     318     319     308     307     
252     253     242     241     319     320     309     308     
253     254     243     242     320     321     310     309     
254     255     244     243     321     322     311     310     
255     256     245     244     322     323     312     311     
256     257     246     245     323     324     313     312     
258     259     248     247     325     326     315     314     
259     260     249     248     326     327     316     315     
260     261     250     249     327     328     317     316     
261     262     251     250     328     329     318     317     
262     263     252     251     329     330     319     318     
263     264     253     252     330     331     320     319     
264     265     254     253     331     332     321     320     
265     266     255     254     332     333     322     321     
266     267     256     255     333     334     323     322     
267     268     257     256     334     335     324     323     
274     275     269     270     341     342     336     337     
275     276     271     269     342     343     338     336     
276     277     272     271     343     344     339     338     
277     278     273     272     344     345     340     339     