Title = " tecplot file for 2D Cavity problem " 
variables = "x", "y", "z", "velX", "cellCentroidY" 
Zone T = "nmesh0" N = 396 E = 250 DATAPACKING = BLOCK, VARLOCATION = ([4-5]=CELLCENTERED), ZONETYPE=FEBRICK
1.3877787808e-17    0.0    0.0    6.9388939039e-18    0.0    
0.0    0.0    0.0    2.7755575616e-17    2.7755575616e-17    
0.0    0.0    -2.7755575616e-17    -2.7755575616e-17    -2.7755575616e-17    
-2.7755575616e-17    0.0    0.0    0.0    0.0    
0.0    0.0    0.0    0.0    1.3877787808e-17    
0.0    0.0    0.0    2.7755575616e-17    0.0    
0.0    0.0    0.0    0.0    0.0    
0.0    -0.05    -0.05    -0.05    -0.05    
-0.05    -0.05    -0.05    -0.05    -0.05    
-0.05    -0.05    -0.05    -0.05    -0.05    
-0.05    -0.05    -0.05    -0.05    -0.05    
-0.05    -0.05    -0.05    -0.05    -0.05    
-0.05    -0.05    -0.05    -0.05    -0.05    
-0.05    -0.05    -0.05    -0.05    -0.05    
-0.05    -0.05    -0.1    -0.1    -0.1    
-0.1    -0.1    -0.1    -0.1    -0.1    
-0.1    -0.1    -0.1    -0.1    -0.1    
-0.1    -0.1    -0.1    -0.1    -0.1    
-0.1    -0.1    -0.1    -0.1    -0.1    
-0.1    -0.1    -0.1    -0.1    -0.1    
-0.1    -0.1    -0.1    -0.1    -0.1    
-0.1    -0.1    -0.1    -0.15    -0.15    
-0.15    -0.15    -0.15    -0.15    -0.15    
-0.15    -0.15    -0.15    -0.15    -0.15    
-0.15    -0.15    -0.15    -0.15    -0.15    
-0.15    -0.15    -0.15    -0.15    -0.15    
-0.15    -0.15    -0.15    -0.15    -0.15    
-0.15    -0.15    -0.15    -0.15    -0.15    
-0.15    -0.15    -0.15    -0.15    -0.2    
-0.2    -0.2    -0.2    -0.2    -0.2    
-0.2    -0.2    -0.2    -0.2    -0.2    
-0.2    -0.2    -0.2    -0.2    -0.2    
-0.2    -0.2    -0.2    -0.2    -0.2    
-0.2    -0.2    -0.2    -0.2    -0.2    
-0.2    -0.2    -0.2    -0.2    -0.2    
-0.2    -0.2    -0.2    -0.2    -0.2    
-0.25    -0.25    -0.25    -0.25    -0.25    
-0.25    -0.25    -0.25    -0.25    -0.25    
-0.25    -0.25    -0.25    -0.25    -0.25    
-0.25    -0.25    -0.25    -0.25    -0.25    
-0.25    -0.25    -0.25    -0.25    -0.25    
-0.25    -0.25    -0.25    -0.25    -0.25    
-0.25    -0.25    -0.25    -0.25    -0.25    
-0.25    -0.3    -0.3    -0.3    -0.3    
-0.3    -0.3    -0.3    -0.3    -0.3    
-0.3    -0.3    -0.3    -0.3    -0.3    
-0.3    -0.3    -0.3    -0.3    -0.3    
-0.3    -0.3    -0.3    -0.3    -0.3    
-0.3    -0.3    -0.3    -0.3    -0.3    
-0.3    -0.3    -0.3    -0.3    -0.3    
-0.3    -0.3    -0.35    -0.35    -0.35    
-0.35    -0.35    -0.35    -0.35    -0.35    
-0.35    -0.35    -0.35    -0.35    -0.35    
-0.35    -0.35    -0.35    -0.35    -0.35    
-0.35    -0.35    -0.35    -0.35    -0.35    
-0.35    -0.35    -0.35    -0.35    -0.35    
-0.35    -0.35    -0.35    -0.35    -0.35    
-0.35    -0.35    -0.35    -0.4    -0.4    
-0.4    -0.4    -0.4    -0.4    -0.4    
-0.4    -0.4    -0.4    -0.4    -0.4    
-0.4    -0.4    -0.4    -0.4    -0.4    
-0.4    -0.4    -0.4    -0.4    -0.4    
-0.4    -0.4    -0.4    -0.4    -0.4    
-0.4    -0.4    -0.4    -0.4    -0.4    
-0.4    -0.4    -0.4    -0.4    -0.45    
-0.45    -0.45    -0.45    -0.45    -0.45    
-0.45    -0.45    -0.45    -0.45    -0.45    
-0.45    -0.45    -0.45    -0.45    -0.45    
-0.45    -0.45    -0.45    -0.45    -0.45    
-0.45    -0.45    -0.45    -0.45    -0.45    
-0.45    -0.45    -0.45    -0.45    -0.45    
-0.45    -0.45    -0.45    -0.45    -0.45    
-0.5    -0.5    -0.5    -0.5    -0.5    
-0.5    -0.5    -0.5    -0.5    -0.5    
-0.5    -0.5    -0.5    -0.5    -0.5    
-0.5    -0.5    -0.5    -0.5    -0.5    
-0.5    -0.5    -0.5    -0.5    -0.5    
-0.5    -0.5    -0.5    -0.5    -0.5    
-0.5    -0.5    -0.5    -0.5    -0.5    
-0.5    
-0.5    -0.45    -0.45    -0.5    -0.4    
-0.4    -0.35    -0.35    -0.3    -0.3    
-0.25    -0.25    -0.5    -0.45    -0.4    
-0.35    -0.3    -0.25    -0.5    -0.45    
-0.4    -0.35    -0.3    -0.25    -0.5    
-0.45    -0.4    -0.35    -0.3    -0.25    
-0.5    -0.45    -0.4    -0.35    -0.3    
-0.25    -0.45    -0.5    -0.4    -0.35    
-0.3    -0.25    -0.45    -0.5    -0.4    
-0.35    -0.3    -0.25    -0.45    -0.5    
-0.4    -0.35    -0.3    -0.25    -0.45    
-0.5    -0.4    -0.35    -0.3    -0.25    
-0.45    -0.5    -0.4    -0.35    -0.3    
-0.25    -0.45    -0.5    -0.4    -0.35    
-0.3    -0.25    -0.45    -0.5    -0.4    
-0.35    -0.3    -0.25    -0.45    -0.5    
-0.4    -0.35    -0.3    -0.25    -0.45    
-0.5    -0.4    -0.35    -0.3    -0.25    
-0.45    -0.5    -0.4    -0.35    -0.3    
-0.25    -0.45    -0.5    -0.4    -0.35    
-0.3    -0.25    -0.45    -0.5    -0.4    
-0.35    -0.3    -0.25    -0.45    -0.5    
-0.4    -0.35    -0.3    -0.25    -0.45    
-0.5    -0.4    -0.35    -0.3    -0.25    
-0.45    -0.5    -0.4    -0.35    -0.3    
-0.25    -0.45    -0.5    -0.4    -0.35    
-0.3    -0.25    -0.45    -0.5    -0.4    
-0.35    -0.3    -0.25    -0.45    -0.5    
-0.4    -0.35    -0.3    -0.25    -0.45    
-0.5    -0.4    -0.35    -0.3    -0.25    
-0.45    -0.5    -0.4    -0.35    -0.3    
-0.25    -0.45    -0.5    -0.4    -0.35    
-0.3    -0.25    -0.45    -0.5    -0.4    
-0.35    -0.3    -0.25    -0.45    -0.5    
-0.4    -0.35    -0.3    -0.25    -0.45    
-0.5    -0.4    -0.35    -0.3    -0.25    
-0.45    -0.5    -0.4    -0.35    -0.3    
-0.25    -0.45    -0.5    -0.4    -0.35    
-0.3    -0.25    -0.45    -0.5    -0.4    
-0.35    -0.3    -0.25    -0.45    -0.5    
-0.4    -0.35    -0.3    -0.25    -0.45    
-0.5    -0.4    -0.35    -0.3    -0.25    
-0.45    -0.5    -0.4    -0.35    -0.3    
-0.25    -0.45    -0.5    -0.4    -0.35    
-0.3    -0.25    -0.45    -0.5    -0.4    
-0.35    -0.3    -0.25    -0.45    -0.5    
-0.4    -0.35    -0.3    -0.25    -0.45    
-0.5    -0.4    -0.35    -0.3    -0.25    
-0.45    -0.5    -0.4    -0.35    -0.3    
-0.25    -0.45    -0.5    -0.4    -0.35    
-0.3    -0.25    -0.45    -0.5    -0.4    
-0.35    -0.3    -0.25    -0.45    -0.5    
-0.4    -0.35    -0.3    -0.25    -0.45    
-0.5    -0.4    -0.35    -0.3    -0.25    
-0.45    -0.5    -0.4    -0.35    -0.3    
-0.25    -0.45    -0.5    -0.4    -0.35    
-0.3    -0.25    -0.45    -0.5    -0.4    
-0.35    -0.3    -0.25    -0.45    -0.5    
-0.4    -0.35    -0.3    -0.25    -0.45    
-0.5    -0.4    -0.35    -0.3    -0.25    
-0.45    -0.5    -0.4    -0.35    -0.3    
-0.25    -0.45    -0.5    -0.4    -0.35    
-0.3    -0.25    -0.45    -0.5    -0.4    
-0.35    -0.3    -0.25    -0.45    -0.5    
-0.4    -0.35    -0.3    -0.25    -0.45    
-0.5    -0.4    -0.35    -0.3    -0.25    
-0.45    -0.5    -0.4    -0.35    -0.3    
-0.25    -0.45    -0.5    -0.4    -0.35    
-0.3    -0.25    -0.45    -0.5    -0.4    
-0.35    -0.3    -0.25    -0.45    -0.5    
-0.4    -0.35    -0.3    -0.25    -0.45    
-0.5    -0.4    -0.35    -0.3    -0.25    
-0.45    -0.5    -0.4    -0.35    -0.3    
-0.25    -0.45    -0.5    -0.4    -0.35    
-0.3    -0.25    -0.45    -0.5    -0.4    
-0.35    -0.3    -0.25    -0.45    -0.5    
-0.4    -0.35    -0.3    -0.25    -0.45    
-0.5    -0.4    -0.35    -0.3    -0.25    
-0.45    -0.5    -0.4    -0.35    -0.3    
-0.25    
0.2    0.2    0.25    0.25    0.2    
0.25    0.2    0.25    0.2    0.25    
0.2    0.25    0.15    0.15    0.15    
0.15    0.15    0.15    0.1    0.1    
0.1    0.1    0.1    0.1    0.05    
0.05    0.05    0.05    0.05    0.05    
0.0    0.0    0.0    0.0    0.0    
0.0    0.25    0.25    0.25    0.25    
0.25    0.25    0.2    0.2    0.2    
0.2    0.2    0.2    0.15    0.15    
0.15    0.15    0.15    0.15    0.1    
0.1    0.1    0.1    0.1    0.1    
0.05    0.05    0.05    0.05    0.05    
0.05    0.0    0.0    0.0    0.0    
0.0    0.0    0.25    0.25    0.25    
0.25    0.25    0.25    0.2    0.2    
0.2    0.2    0.2    0.2    0.15    
0.15    0.15    0.15    0.15    0.15    
0.1    0.1    0.1    0.1    0.1    
0.1    0.05    0.05    0.05    0.05    
0.05    0.05    0.0    0.0    0.0    
0.0    0.0    0.0    0.25    0.25    
0.25    0.25    0.25    0.25    0.2    
0.2    0.2    0.2    0.2    0.2    
0.15    0.15    0.15    0.15    0.15    
0.15    0.1    0.1    0.1    0.1    
0.1    0.1    0.05    0.05    0.05    
0.05    0.05    0.05    0.0    0.0    
0.0    0.0    0.0    0.0    0.25    
0.25    0.25    0.25    0.25    0.25    
0.2    0.2    0.2    0.2    0.2    
0.2    0.15    0.15    0.15    0.15    
0.15    0.15    0.1    0.1    0.1    
0.1    0.1    0.1    0.05    0.05    
0.05    0.05    0.05    0.05    0.0    
0.0    0.0    0.0    0.0    0.0    
0.25    0.25    0.25    0.25    0.25    
0.25    0.2    0.2    0.2    0.2    
0.2    0.2    0.15    0.15    0.15    
0.15    0.15    0.15    0.1    0.1    
0.1    0.1    0.1    0.1    0.05    
0.05    0.05    0.05    0.05    0.05    
0.0    0.0    0.0    0.0    0.0    
0.0    0.25    0.25    0.25    0.25    
0.25    0.25    0.2    0.2    0.2    
0.2    0.2    0.2    0.15    0.15    
0.15    0.15    0.15    0.15    0.1    
0.1    0.1    0.1    0.1    0.1    
0.05    0.05    0.05    0.05    0.05    
0.05    0.0    0.0    0.0    0.0    
0.0    0.0    0.25    0.25    0.25    
0.25    0.25    0.25    0.2    0.2    
0.2    0.2    0.2    0.2    0.15    
0.15    0.15    0.15    0.15    0.15    
0.1    0.1    0.1    0.1    0.1    
0.1    0.05    0.05    0.05    0.05    
0.05    0.05    0.0    0.0    0.0    
0.0    0.0    0.0    0.25    0.25    
0.25    0.25    0.25    0.25    0.2    
0.2    0.2    0.2    0.2    0.2    
0.15    0.15    0.15    0.15    0.15    
0.15    0.1    0.1    0.1    0.1    
0.1    0.1    0.05    0.05    0.05    
0.05    0.05    0.05    0.0    0.0    
0.0    0.0    0.0    0.0    0.25    
0.25    0.25    0.25    0.25    0.25    
0.2    0.2    0.2    0.2    0.2    
0.2    0.15    0.15    0.15    0.15    
0.15    0.15    0.1    0.1    0.1    
0.1    0.1    0.1    0.05    0.05    
0.05    0.05    0.05    0.05    0.0    
0.0    0.0    0.0    0.0    0.0    
0.25    0.25    0.25    0.25    0.25    
0.25    0.2    0.2    0.2    0.2    
0.2    0.2    0.15    0.15    0.15    
0.15    0.15    0.15    0.1    0.1    
0.1    0.1    0.1    0.1    0.05    
0.05    0.05    0.05    0.05    0.05    
0.0    0.0    0.0    0.0    0.0    
0.0    
398.705791407    396.053917821    393.208622338    390.030650609    386.364830333    
398.551821738    395.585031815    392.403688535    388.853804798    384.76459716    
398.433589897    395.225108435    391.786270832    387.952181983    383.540684688    
398.353483961    394.981317876    391.368314713    387.342403281    382.714042291    
398.313051706    394.85829063    391.157475181    387.03498082    382.297641808    
398.736791154    396.148270462    393.370413773    390.266768408    386.685050669    
398.586517316    395.690622578    392.58471296    389.117905794    385.122606124    
398.471125245    395.339331801    391.982060541    388.237746408    383.927641229    
398.392944298    395.101391678    391.574106468    387.64249668    383.120574354    
398.353483957    394.981317858    391.368314689    387.342403245    382.714042244    
398.79821319    396.335253616    393.69116952    390.735169802    387.320860777    
398.655260497    395.899871167    392.943586598    389.641796137    385.833404262    
398.545493407    395.565682361    392.370194821    388.804192267    384.695873702    
398.471125247    395.339331804    391.982060546    388.237746412    383.927641236    
398.433589891    395.225108419    391.786270811    387.952181951    383.540684635    
398.888878215    396.61134125    394.165068658    391.427883371    388.262476251    
398.756728401    396.208821377    393.47377501    390.416518151    386.885974863    
398.655260503    395.899871183    392.943586619    389.641796165    385.833404298    
398.586517321    395.690622596    392.584712987    389.117905825    385.122606155    
398.551821736    395.585031807    392.403688527    388.85380478    384.764597125    
399.006964276    396.971065179    394.783010075    392.332270076    389.494025647    
398.888878221    396.611341266    394.165068685    391.427883412    388.262476308    
398.7982132    396.335253647    393.691169569    390.73516987    387.320860866    
398.736791164    396.148270492    393.370413824    390.266768478    386.68505075    
398.705791408    396.05391782    393.208622346    390.030650616    386.364830332    
399.149964164    397.406867121    395.53229396    393.430409025    390.992428207    
399.048900403    397.098960508    395.003232815    392.655797431    389.9370088    
398.971308863    396.862656187    394.597524793    392.062540763    389.130163432    
398.918745723    396.702623915    394.322939106    391.661420009    388.585409824    
398.892217743    396.621873131    394.184441049    391.459227309    388.311066894    
399.314659959    397.909001993    396.396387287    394.698594287    392.726392288    
399.233191067    397.660765278    395.969751544    394.073709808    391.874519257    
399.170646529    397.470265413    395.642610346    393.595169076    391.223362757    
399.128278377    397.341258878    395.421211055    393.271634605    390.783767955    
399.106896213    397.276165194    395.309543465    393.108558143    390.562397725    
399.497134238    398.465556036    397.354897042    396.107157414    394.655891628    
399.437365299    398.28342116    397.041803747    395.648427283    394.030238665    
399.39148198    398.143655275    396.801740205    395.297156178    393.552052857    
399.360401297    398.049009325    396.639279942    395.059681402    393.229257686    
399.344715972    398.001254323    396.557341949    394.93998769    393.066713912    
399.69283359    399.062631564    398.383855285    397.620804635    396.732452843    
399.656328647    398.951381335    398.192585258    397.340497885    396.35001832    
399.628305457    398.86601357    398.045935742    397.12586625    396.057747522    
399.609323422    398.808206238    397.946695711    396.980772307    395.860464979    
399.599744006    398.779039208    397.896644371    396.907643125    395.761127111    
399.896691755    399.684723599    399.456370781    399.199577909    398.9004679    
399.88441485    399.647307816    399.392037554    399.105285565    398.771797749    
399.87499058    399.618597373    399.342713457    399.033087862    398.673467381    
399.868606954    399.599156193    399.309335662    398.984282381    398.60709666    
399.86538544    399.58934712    399.292501886    398.95968417    398.573677648    

-0.475    -0.425    -0.375    -0.325    -0.275    
-0.475    -0.425    -0.375    -0.325    -0.275    
-0.475    -0.425    -0.375    -0.325    -0.275    
-0.475    -0.425    -0.375    -0.325    -0.275    
-0.475    -0.425    -0.375    -0.325    -0.275    
-0.475    -0.425    -0.375    -0.325    -0.275    
-0.475    -0.425    -0.375    -0.325    -0.275    
-0.475    -0.425    -0.375    -0.325    -0.275    
-0.475    -0.425    -0.375    -0.325    -0.275    
-0.475    -0.425    -0.375    -0.325    -0.275    
-0.475    -0.425    -0.375    -0.325    -0.275    
-0.475    -0.425    -0.375    -0.325    -0.275    
-0.475    -0.425    -0.375    -0.325    -0.275    
-0.475    -0.425    -0.375    -0.325    -0.275    
-0.475    -0.425    -0.375    -0.325    -0.275    
-0.475    -0.425    -0.375    -0.325    -0.275    
-0.475    -0.425    -0.375    -0.325    -0.275    
-0.475    -0.425    -0.375    -0.325    -0.275    
-0.475    -0.425    -0.375    -0.325    -0.275    
-0.475    -0.425    -0.375    -0.325    -0.275    
-0.475    -0.425    -0.375    -0.325    -0.275    
-0.475    -0.425    -0.375    -0.325    -0.275    
-0.475    -0.425    -0.375    -0.325    -0.275    
-0.475    -0.425    -0.375    -0.325    -0.275    
-0.475    -0.425    -0.375    -0.325    -0.275    
-0.475    -0.425    -0.375    -0.325    -0.275    
-0.475    -0.425    -0.375    -0.325    -0.275    
-0.475    -0.425    -0.375    -0.325    -0.275    
-0.475    -0.425    -0.375    -0.325    -0.275    
-0.475    -0.425    -0.375    -0.325    -0.275    
-0.475    -0.425    -0.375    -0.325    -0.275    
-0.475    -0.425    -0.375    -0.325    -0.275    
-0.475    -0.425    -0.375    -0.325    -0.275    
-0.475    -0.425    -0.375    -0.325    -0.275    
-0.475    -0.425    -0.375    -0.325    -0.275    
-0.475    -0.425    -0.375    -0.325    -0.275    
-0.475    -0.425    -0.375    -0.325    -0.275    
-0.475    -0.425    -0.375    -0.325    -0.275    
-0.475    -0.425    -0.375    -0.325    -0.275    
-0.475    -0.425    -0.375    -0.325    -0.275    
-0.475    -0.425    -0.375    -0.325    -0.275    
-0.475    -0.425    -0.375    -0.325    -0.275    
-0.475    -0.425    -0.375    -0.325    -0.275    
-0.475    -0.425    -0.375    -0.325    -0.275    
-0.475    -0.425    -0.375    -0.325    -0.275    
-0.475    -0.425    -0.375    -0.325    -0.275    
-0.475    -0.425    -0.375    -0.325    -0.275    
-0.475    -0.425    -0.375    -0.325    -0.275    
-0.475    -0.425    -0.375    -0.325    -0.275    
-0.475    -0.425    -0.375    -0.325    -0.275    

3     2     43     37     4     1     44     38     
37     43     2     3     39     45     5     6     
39     45     5     6     40     46     7     8     
40     46     7     8     41     47     9     10     
41     47     9     10     42     48     11     12     
43     44     1     2     49     50     13     14     
45     43     2     5     51     49     14     15     
46     45     5     7     52     51     15     16     
47     46     7     9     53     52     16     17     
48     47     9     11     54     53     17     18     
49     50     13     14     55     56     19     20     
51     49     14     15     57     55     20     21     
52     51     15     16     58     57     21     22     
53     52     16     17     59     58     22     23     
54     53     17     18     60     59     23     24     
55     56     19     20     61     62     25     26     
57     55     20     21     63     61     26     27     
58     57     21     22     64     63     27     28     
59     58     22     23     65     64     28     29     
60     59     23     24     66     65     29     30     
61     62     25     26     67     68     31     32     
63     61     26     27     69     67     32     33     
64     63     27     28     70     69     33     34     
65     64     28     29     71     70     34     35     
66     65     29     30     72     71     35     36     
44     43     37     38     80     79     73     74     
43     45     39     37     79     81     75     73     
45     46     40     39     81     82     76     75     
46     47     41     40     82     83     77     76     
47     48     42     41     83     84     78     77     
50     49     43     44     86     85     79     80     
49     51     45     43     85     87     81     79     
51     52     46     45     87     88     82     81     
52     53     47     46     88     89     83     82     
53     54     48     47     89     90     84     83     
56     55     49     50     92     91     85     86     
55     57     51     49     91     93     87     85     
57     58     52     51     93     94     88     87     
58     59     53     52     94     95     89     88     
59     60     54     53     95     96     90     89     
62     61     55     56     98     97     91     92     
61     63     57     55     97     99     93     91     
63     64     58     57     99     100     94     93     
64     65     59     58     100     101     95     94     
65     66     60     59     101     102     96     95     
68     67     61     62     104     103     97     98     
67     69     63     61     103     105     99     97     
69     70     64     63     105     106     100     99     
70     71     65     64     106     107     101     100     
71     72     66     65     107     108     102     101     
80     79     73     74     116     115     109     110     
79     81     75     73     115     117     111     109     
81     82     76     75     117     118     112     111     
82     83     77     76     118     119     113     112     
83     84     78     77     119     120     114     113     
86     85     79     80     122     121     115     116     
85     87     81     79     121     123     117     115     
87     88     82     81     123     124     118     117     
88     89     83     82     124     125     119     118     
89     90     84     83     125     126     120     119     
92     91     85     86     128     127     121     122     
91     93     87     85     127     129     123     121     
93     94     88     87     129     130     124     123     
94     95     89     88     130     131     125     124     
95     96     90     89     131     132     126     125     
98     97     91     92     134     133     127     128     
97     99     93     91     133     135     129     127     
99     100     94     93     135     136     130     129     
100     101     95     94     136     137     131     130     
101     102     96     95     137     138     132     131     
104     103     97     98     140     139     133     134     
103     105     99     97     139     141     135     133     
105     106     100     99     141     142     136     135     
106     107     101     100     142     143     137     136     
107     108     102     101     143     144     138     137     
116     115     109     110     152     151     145     146     
115     117     111     109     151     153     147     145     
117     118     112     111     153     154     148     147     
118     119     113     112     154     155     149     148     
119     120     114     113     155     156     150     149     
122     121     115     116     158     157     151     152     
121     123     117     115     157     159     153     151     
123     124     118     117     159     160     154     153     
124     125     119     118     160     161     155     154     
125     126     120     119     161     162     156     155     
128     127     121     122     164     163     157     158     
127     129     123     121     163     165     159     157     
129     130     124     123     165     166     160     159     
130     131     125     124     166     167     161     160     
131     132     126     125     167     168     162     161     
134     133     127     128     170     169     163     164     
133     135     129     127     169     171     165     163     
135     136     130     129     171     172     166     165     
136     137     131     130     172     173     167     166     
137     138     132     131     173     174     168     167     
140     139     133     134     176     175     169     170     
139     141     135     133     175     177     171     169     
141     142     136     135     177     178     172     171     
142     143     137     136     178     179     173     172     
143     144     138     137     179     180     174     173     
152     151     145     146     188     187     181     182     
151     153     147     145     187     189     183     181     
153     154     148     147     189     190     184     183     
154     155     149     148     190     191     185     184     
155     156     150     149     191     192     186     185     
158     157     151     152     194     193     187     188     
157     159     153     151     193     195     189     187     
159     160     154     153     195     196     190     189     
160     161     155     154     196     197     191     190     
161     162     156     155     197     198     192     191     
164     163     157     158     200     199     193     194     
163     165     159     157     199     201     195     193     
165     166     160     159     201     202     196     195     
166     167     161     160     202     203     197     196     
167     168     162     161     203     204     198     197     
170     169     163     164     206     205     199     200     
169     171     165     163     205     207     201     199     
171     172     166     165     207     208     202     201     
172     173     167     166     208     209     203     202     
173     174     168     167     209     210     204     203     
176     175     169     170     212     211     205     206     
175     177     171     169     211     213     207     205     
177     178     172     171     213     214     208     207     
178     179     173     172     214     215     209     208     
179     180     174     173     215     216     210     209     
188     187     181     182     224     223     217     218     
187     189     183     181     223     225     219     217     
189     190     184     183     225     226     220     219     
190     191     185     184     226     227     221     220     
191     192     186     185     227     228     222     221     
194     193     187     188     230     229     223     224     
193     195     189     187     229     231     225     223     
195     196     190     189     231     232     226     225     
196     197     191     190     232     233     227     226     
197     198     192     191     233     234     228     227     
200     199     193     194     236     235     229     230     
199     201     195     193     235     237     231     229     
201     202     196     195     237     238     232     231     
202     203     197     196     238     239     233     232     
203     204     198     197     239     240     234     233     
206     205     199     200     242     241     235     236     
205     207     201     199     241     243     237     235     
207     208     202     201     243     244     238     237     
208     209     203     202     244     245     239     238     
209     210     204     203     245     246     240     239     
212     211     205     206     248     247     241     242     
211     213     207     205     247     249     243     241     
213     214     208     207     249     250     244     243     
214     215     209     208     250     251     245     244     
215     216     210     209     251     252     246     245     
224     223     217     218     260     259     253     254     
223     225     219     217     259     261     255     253     
225     226     220     219     261     262     256     255     
226     227     221     220     262     263     257     256     
227     228     222     221     263     264     258     257     
230     229     223     224     266     265     259     260     
229     231     225     223     265     267     261     259     
231     232     226     225     267     268     262     261     
232     233     227     226     268     269     263     262     
233     234     228     227     269     270     264     263     
236     235     229     230     272     271     265     266     
235     237     231     229     271     273     267     265     
237     238     232     231     273     274     268     267     
238     239     233     232     274     275     269     268     
239     240     234     233     275     276     270     269     
242     241     235     236     278     277     271     272     
241     243     237     235     277     279     273     271     
243     244     238     237     279     280     274     273     
244     245     239     238     280     281     275     274     
245     246     240     239     281     282     276     275     
248     247     241     242     284     283     277     278     
247     249     243     241     283     285     279     277     
249     250     244     243     285     286     280     279     
250     251     245     244     286     287     281     280     
251     252     246     245     287     288     282     281     
260     259     253     254     296     295     289     290     
259     261     255     253     295     297     291     289     
261     262     256     255     297     298     292     291     
262     263     257     256     298     299     293     292     
263     264     258     257     299     300     294     293     
266     265     259     260     302     301     295     296     
265     267     261     259     301     303     297     295     
267     268     262     261     303     304     298     297     
268     269     263     262     304     305     299     298     
269     270     264     263     305     306     300     299     
272     271     265     266     308     307     301     302     
271     273     267     265     307     309     303     301     
273     274     268     267     309     310     304     303     
274     275     269     268     310     311     305     304     
275     276     270     269     311     312     306     305     
278     277     271     272     314     313     307     308     
277     279     273     271     313     315     309     307     
279     280     274     273     315     316     310     309     
280     281     275     274     316     317     311     310     
281     282     276     275     317     318     312     311     
284     283     277     278     320     319     313     314     
283     285     279     277     319     321     315     313     
285     286     280     279     321     322     316     315     
286     287     281     280     322     323     317     316     
287     288     282     281     323     324     318     317     
296     295     289     290     332     331     325     326     
295     297     291     289     331     333     327     325     
297     298     292     291     333     334     328     327     
298     299     293     292     334     335     329     328     
299     300     294     293     335     336     330     329     
302     301     295     296     338     337     331     332     