Title = " tecplot file for 2D Cavity problem " 
variables = "x", "y", "z", "velX", "cellCentroidY" 
Zone T = "nmesh0" N = 396 E = 250 DATAPACKING = BLOCK, VARLOCATION = ([4-5]=CELLCENTERED), ZONETYPE=FEBRICK
0.0    0.0    0.0    0.0    0.0    
0.0    0.0    0.0    0.0    0.0    
0.0    0.0    0.0    0.0    0.0    
0.0    0.0    0.0    0.0    0.0    
0.0    0.0    0.0    0.0    -2.7755575616e-17    
-2.7755575616e-17    -2.7755575616e-17    -2.7755575616e-17    0.0    0.0    
0.0    0.0    0.0    0.0    0.0    
0.0    0.0    0.0    0.0    0.0    
0.0    0.0    0.0    -2.4651903288e-32    0.0    
0.0    0.0    0.0    0.0    0.0    
0.0    0.0    0.0    0.0    0.0    
0.0    0.0    0.0    0.0    0.0    
0.0    0.0    0.0    0.0    0.0    
0.0    -0.05    -0.05    -0.05    -0.05    
-0.05    -0.05    -0.05    -0.05    -0.05    
-0.05    -0.05    -0.05    -0.05    -0.05    
-0.05    -0.05    -0.05    -0.05    -0.05    
-0.05    -0.05    -0.05    -0.05    -0.05    
-0.05    -0.05    -0.05    -0.05    -0.05    
-0.05    -0.05    -0.05    -0.05    -0.05    
-0.05    -0.05    -0.05    -0.05    -0.05    
-0.05    -0.05    -0.05    -0.05    -0.05    
-0.05    -0.05    -0.05    -0.05    -0.05    
-0.05    -0.05    -0.05    -0.05    -0.05    
-0.05    -0.05    -0.05    -0.05    -0.05    
-0.05    -0.05    -0.05    -0.05    -0.05    
-0.05    -0.05    -0.1    -0.1    -0.1    
-0.1    -0.1    -0.1    -0.1    -0.1    
-0.1    -0.1    -0.1    -0.1    -0.1    
-0.1    -0.1    -0.1    -0.1    -0.1    
-0.1    -0.1    -0.1    -0.1    -0.1    
-0.1    -0.1    -0.1    -0.1    -0.1    
-0.1    -0.1    -0.1    -0.1    -0.1    
-0.1    -0.1    -0.1    -0.1    -0.1    
-0.1    -0.1    -0.1    -0.1    -0.1    
-0.1    -0.1    -0.1    -0.1    -0.1    
-0.1    -0.1    -0.1    -0.1    -0.1    
-0.1    -0.1    -0.1    -0.1    -0.1    
-0.1    -0.1    -0.1    -0.1    -0.1    
-0.1    -0.1    -0.1    -0.15    -0.15    
-0.15    -0.15    -0.15    -0.15    -0.15    
-0.15    -0.15    -0.15    -0.15    -0.15    
-0.15    -0.15    -0.15    -0.15    -0.15    
-0.15    -0.15    -0.15    -0.15    -0.15    
-0.15    -0.15    -0.15    -0.15    -0.15    
-0.15    -0.15    -0.15    -0.15    -0.15    
-0.15    -0.15    -0.15    -0.15    -0.15    
-0.15    -0.15    -0.15    -0.15    -0.15    
-0.15    -0.15    -0.15    -0.15    -0.15    
-0.15    -0.15    -0.15    -0.15    -0.15    
-0.15    -0.15    -0.15    -0.15    -0.15    
-0.15    -0.15    -0.15    -0.15    -0.15    
-0.15    -0.15    -0.15    -0.15    -0.2    
-0.2    -0.2    -0.2    -0.2    -0.2    
-0.2    -0.2    -0.2    -0.2    -0.2    
-0.2    -0.2    -0.2    -0.2    -0.2    
-0.2    -0.2    -0.2    -0.2    -0.2    
-0.2    -0.2    -0.2    -0.2    -0.2    
-0.2    -0.2    -0.2    -0.2    -0.2    
-0.2    -0.2    -0.2    -0.2    -0.2    
-0.2    -0.2    -0.2    -0.2    -0.2    
-0.2    -0.2    -0.2    -0.2    -0.2    
-0.2    -0.2    -0.2    -0.2    -0.2    
-0.2    -0.2    -0.2    -0.2    -0.2    
-0.2    -0.2    -0.2    -0.2    -0.2    
-0.2    -0.2    -0.2    -0.2    -0.2    
-0.25    -0.25    -0.25    -0.25    -0.25    
-0.25    -0.25    -0.25    -0.25    -0.25    
-0.25    -0.25    -0.25    -0.25    -0.25    
-0.25    -0.25    -0.25    -0.25    -0.25    
-0.25    -0.25    -0.25    -0.25    -0.25    
-0.25    -0.25    -0.25    -0.25    -0.25    
-0.25    -0.25    -0.25    -0.25    -0.25    
-0.25    -0.25    -0.25    -0.25    -0.25    
-0.25    -0.25    -0.25    -0.25    -0.25    
-0.25    -0.25    -0.25    -0.25    -0.25    
-0.25    -0.25    -0.25    -0.25    -0.25    
-0.25    -0.25    -0.25    -0.25    -0.25    
-0.25    -0.25    -0.25    -0.25    -0.25    
-0.25    
-0.5    -0.45    -0.45    -0.5    -0.4    
-0.4    -0.35    -0.35    -0.3    -0.3    
-0.25    -0.25    -0.5    -0.45    -0.4    
-0.35    -0.3    -0.25    -0.5    -0.45    
-0.4    -0.35    -0.3    -0.25    -0.5    
-0.45    -0.4    -0.35    -0.3    -0.25    
-0.5    -0.45    -0.4    -0.35    -0.3    
-0.25    -0.5    -0.45    -0.4    -0.35    
-0.3    -0.25    -0.5    -0.45    -0.4    
-0.35    -0.3    -0.25    -0.5    -0.45    
-0.4    -0.35    -0.3    -0.25    -0.5    
-0.45    -0.4    -0.35    -0.3    -0.25    
-0.5    -0.45    -0.4    -0.35    -0.3    
-0.25    -0.45    -0.5    -0.4    -0.35    
-0.3    -0.25    -0.45    -0.5    -0.4    
-0.35    -0.3    -0.25    -0.45    -0.5    
-0.4    -0.35    -0.3    -0.25    -0.45    
-0.5    -0.4    -0.35    -0.3    -0.25    
-0.45    -0.5    -0.4    -0.35    -0.3    
-0.25    -0.45    -0.5    -0.4    -0.35    
-0.3    -0.25    -0.45    -0.5    -0.4    
-0.35    -0.3    -0.25    -0.45    -0.5    
-0.4    -0.35    -0.3    -0.25    -0.45    
-0.5    -0.4    -0.35    -0.3    -0.25    
-0.45    -0.5    -0.4    -0.35    -0.3    
-0.25    -0.45    -0.5    -0.4    -0.35    
-0.3    -0.25    -0.45    -0.5    -0.4    
-0.35    -0.3    -0.25    -0.45    -0.5    
-0.4    -0.35    -0.3    -0.25    -0.45    
-0.5    -0.4    -0.35    -0.3    -0.25    
-0.45    -0.5    -0.4    -0.35    -0.3    
-0.25    -0.45    -0.5    -0.4    -0.35    
-0.3    -0.25    -0.45    -0.5    -0.4    
-0.35    -0.3    -0.25    -0.45    -0.5    
-0.4    -0.35    -0.3    -0.25    -0.45    
-0.5    -0.4    -0.35    -0.3    -0.25    
-0.45    -0.5    -0.4    -0.35    -0.3    
-0.25    -0.45    -0.5    -0.4    -0.35    
-0.3    -0.25    -0.45    -0.5    -0.4    
-0.35    -0.3    -0.25    -0.45    -0.5    
-0.4    -0.35    -0.3    -0.25    -0.45    
-0.5    -0.4    -0.35    -0.3    -0.25    
-0.45    -0.5    -0.4    -0.35    -0.3    
-0.25    -0.45    -0.5    -0.4    -0.35    
-0.3    -0.25    -0.45    -0.5    -0.4    
-0.35    -0.3    -0.25    -0.45    -0.5    
-0.4    -0.35    -0.3    -0.25    -0.45    
-0.5    -0.4    -0.35    -0.3    -0.25    
-0.45    -0.5    -0.4    -0.35    -0.3    
-0.25    -0.45    -0.5    -0.4    -0.35    
-0.3    -0.25    -0.45    -0.5    -0.4    
-0.35    -0.3    -0.25    -0.45    -0.5    
-0.4    -0.35    -0.3    -0.25    -0.45    
-0.5    -0.4    -0.35    -0.3    -0.25    
-0.45    -0.5    -0.4    -0.35    -0.3    
-0.25    -0.45    -0.5    -0.4    -0.35    
-0.3    -0.25    -0.45    -0.5    -0.4    
-0.35    -0.3    -0.25    -0.45    -0.5    
-0.4    -0.35    -0.3    -0.25    -0.45    
-0.5    -0.4    -0.35    -0.3    -0.25    
-0.45    -0.5    -0.4    -0.35    -0.3    
-0.25    -0.45    -0.5    -0.4    -0.35    
-0.3    -0.25    -0.45    -0.5    -0.4    
-0.35    -0.3    -0.25    -0.45    -0.5    
-0.4    -0.35    -0.3    -0.25    -0.45    
-0.5    -0.4    -0.35    -0.3    -0.25    
-0.45    -0.5    -0.4    -0.35    -0.3    
-0.25    -0.45    -0.5    -0.4    -0.35    
-0.3    -0.25    -0.45    -0.5    -0.4    
-0.35    -0.3    -0.25    -0.45    -0.5    
-0.4    -0.35    -0.3    -0.25    -0.45    
-0.5    -0.4    -0.35    -0.3    -0.25    
-0.45    -0.5    -0.4    -0.35    -0.3    
-0.25    -0.45    -0.5    -0.4    -0.35    
-0.3    -0.25    -0.45    -0.5    -0.4    
-0.35    -0.3    -0.25    -0.45    -0.5    
-0.4    -0.35    -0.3    -0.25    -0.45    
-0.5    -0.4    -0.35    -0.3    -0.25    
-0.45    -0.5    -0.4    -0.35    -0.3    
-0.25    
-0.05    -0.05    0.0    0.0    -0.05    
0.0    -0.05    0.0    -0.05    0.0    
-0.05    0.0    -0.1    -0.1    -0.1    
-0.1    -0.1    -0.1    -0.15    -0.15    
-0.15    -0.15    -0.15    -0.15    -0.2    
-0.2    -0.2    -0.2    -0.2    -0.2    
-0.25    -0.25    -0.25    -0.25    -0.25    
-0.25    -0.3    -0.3    -0.3    -0.3    
-0.3    -0.3    -0.35    -0.35    -0.35    
-0.35    -0.35    -0.35    -0.4    -0.4    
-0.4    -0.4    -0.4    -0.4    -0.45    
-0.45    -0.45    -0.45    -0.45    -0.45    
-0.5    -0.5    -0.5    -0.5    -0.5    
-0.5    0.0    0.0    0.0    0.0    
0.0    0.0    -0.05    -0.05    -0.05    
-0.05    -0.05    -0.05    -0.1    -0.1    
-0.1    -0.1    -0.1    -0.1    -0.15    
-0.15    -0.15    -0.15    -0.15    -0.15    
-0.2    -0.2    -0.2    -0.2    -0.2    
-0.2    -0.25    -0.25    -0.25    -0.25    
-0.25    -0.25    -0.3    -0.3    -0.3    
-0.3    -0.3    -0.3    -0.35    -0.35    
-0.35    -0.35    -0.35    -0.35    -0.4    
-0.4    -0.4    -0.4    -0.4    -0.4    
-0.45    -0.45    -0.45    -0.45    -0.45    
-0.45    -0.5    -0.5    -0.5    -0.5    
-0.5    -0.5    0.0    0.0    0.0    
0.0    0.0    0.0    -0.05    -0.05    
-0.05    -0.05    -0.05    -0.05    -0.1    
-0.1    -0.1    -0.1    -0.1    -0.1    
-0.15    -0.15    -0.15    -0.15    -0.15    
-0.15    -0.2    -0.2    -0.2    -0.2    
-0.2    -0.2    -0.25    -0.25    -0.25    
-0.25    -0.25    -0.25    -0.3    -0.3    
-0.3    -0.3    -0.3    -0.3    -0.35    
-0.35    -0.35    -0.35    -0.35    -0.35    
-0.4    -0.4    -0.4    -0.4    -0.4    
-0.4    -0.45    -0.45    -0.45    -0.45    
-0.45    -0.45    -0.5    -0.5    -0.5    
-0.5    -0.5    -0.5    0.0    0.0    
0.0    0.0    0.0    0.0    -0.05    
-0.05    -0.05    -0.05    -0.05    -0.05    
-0.1    -0.1    -0.1    -0.1    -0.1    
-0.1    -0.15    -0.15    -0.15    -0.15    
-0.15    -0.15    -0.2    -0.2    -0.2    
-0.2    -0.2    -0.2    -0.25    -0.25    
-0.25    -0.25    -0.25    -0.25    -0.3    
-0.3    -0.3    -0.3    -0.3    -0.3    
-0.35    -0.35    -0.35    -0.35    -0.35    
-0.35    -0.4    -0.4    -0.4    -0.4    
-0.4    -0.4    -0.45    -0.45    -0.45    
-0.45    -0.45    -0.45    -0.5    -0.5    
-0.5    -0.5    -0.5    -0.5    0.0    
0.0    0.0    0.0    0.0    0.0    
-0.05    -0.05    -0.05    -0.05    -0.05    
-0.05    -0.1    -0.1    -0.1    -0.1    
-0.1    -0.1    -0.15    -0.15    -0.15    
-0.15    -0.15    -0.15    -0.2    -0.2    
-0.2    -0.2    -0.2    -0.2    -0.25    
-0.25    -0.25    -0.25    -0.25    -0.25    
-0.3    -0.3    -0.3    -0.3    -0.3    
-0.3    -0.35    -0.35    -0.35    -0.35    
-0.35    -0.35    -0.4    -0.4    -0.4    
-0.4    -0.4    -0.4    -0.45    -0.45    
-0.45    -0.45    -0.45    -0.45    -0.5    
-0.5    -0.5    -0.5    -0.5    -0.5    
0.0    0.0    0.0    0.0    0.0    
0.0    -0.05    -0.05    -0.05    -0.05    
-0.05    -0.05    -0.1    -0.1    -0.1    
-0.1    -0.1    -0.1    -0.15    -0.15    
-0.15    -0.15    -0.15    -0.15    -0.2    
-0.2    -0.2    -0.2    -0.2    -0.2    
-0.25    -0.25    -0.25    -0.25    -0.25    
-0.25    -0.3    -0.3    -0.3    -0.3    
-0.3    -0.3    -0.35    -0.35    -0.35    
-0.35    -0.35    -0.35    -0.4    -0.4    
-0.4    -0.4    -0.4    -0.4    -0.45    
-0.45    -0.45    -0.45    -0.45    -0.45    
-0.5    -0.5    -0.5    -0.5    -0.5    
-0.5    
394.858290532    398.313051666    398.353483929    398.353483925    391.157475003    
394.981317779    394.981317764    387.034980578    391.36831455    391.368314522    
382.297641497    387.342403045    387.34240301    382.714041979    382.71404194    
398.433589872    398.392944268    395.225108364    395.101391582    391.78627071    
391.57410631    387.952181798    387.642496456    383.540684441    383.120574054    
398.551821725    398.471125222    395.585031777    395.339331731    392.403688465    
391.982060423    388.853804692    388.237746235    384.764597004    383.927640993    
398.705791406    398.586517303    396.053917815    395.690622545    393.208622328    
392.5847129    390.030650588    389.117905696    386.364830286    385.122605979    
398.892217745    398.736791154    396.621873138    396.14827046    394.184441057    
393.370413771    391.459227313    390.266768395    388.311066882    386.685050626    
399.106896215    398.918745718    397.2761652    396.702623899    395.309543471    
394.322939076    393.108558141    391.661419952    390.562397726    388.585409743    
399.344715974    399.128278374    398.001254327    397.341258867    396.557341951    
395.421211032    394.939987692    393.271634565    393.066713913    390.783767895    
399.599744007    399.360401294    398.779039208    398.049009316    397.896644369    
396.639279925    396.907643121    395.059681375    395.761127113    393.229257653    
399.86538544    399.60932342    399.58934712    398.808206232    399.292501884    
397.946695699    398.959684169    396.980772292    398.573677646    395.860464958    
399.868606954    399.59915619    399.309335657    398.984282375    398.607096651    
398.433589861    395.22510833    391.786270651    387.952181725    383.540684341    
398.471125215    395.339331709    391.982060393    388.23774619    383.927640931    
398.545493383    395.56568229    392.370194702    388.80419209    384.695873457    
398.655260484    395.899871129    392.943586529    389.64179603    385.833404105    
398.798213188    396.335253609    393.691169508    390.735169767    387.320860715    
398.971308855    396.862656164    394.597524751    392.062540687    389.13016332    
399.170646523    397.470265399    395.642610315    393.59516902    391.223362677    
399.391481976    398.143655265    396.801740183    395.297156143    393.552052804    
399.628305455    398.866013563    398.045935729    397.125866229    396.057747491    
399.874990579    399.618597371    399.342713452    399.033087854    398.67346737    
398.551821707    395.58503172    392.403688375    388.853804564    384.764596832    
398.586517288    395.690622497    392.584712827    389.117905588    385.122605831    
398.655260475    395.899871102    392.943586486    389.641795962    385.833404017    
398.756728385    396.208821324    393.473774919    390.416518011    386.885974657    
398.888878209    396.611341226    394.165068617    391.427883297    388.262476142    
399.048900394    397.098960481    395.003232763    392.655797344    389.937008672    
399.233191061    397.66076526    395.969751508    394.073709747    391.874519162    
399.437365295    398.283421149    397.041803725    395.648427241    394.030238599    
399.656328645    398.951381329    398.192585244    397.340497857    396.350018281    
399.884414849    399.647307814    399.392037549    399.105285556    398.771797736    
398.705791379    396.053917733    393.208622193    390.030650387    386.364830019    
398.736791127    396.148270382    393.370413644    390.266768204    386.685050371    
398.798213167    396.335253547    393.691169403    390.735169613    387.32086051    
398.888878197    396.611341189    394.165068555    391.427883209    388.262476021    
399.00696426    396.971065128    394.783009991    392.332269944    389.494025451    
399.149964152    397.406867082    395.532293895    393.430408918    390.992428053    
399.31465995    397.909001966    396.39638724    394.69859421    392.726392167    
399.497134232    398.46555602    397.354897011    396.107157356    394.655891542    
399.692833587    399.062631555    398.383855265    397.620804599    396.73245279    
399.896691754    399.684723596    399.456370774    399.199577897    398.900467883    

-0.425    -0.475    -0.475    -0.475    -0.375    
-0.425    -0.425    -0.325    -0.375    -0.375    
-0.275    -0.325    -0.325    -0.275    -0.275    
-0.475    -0.475    -0.425    -0.425    -0.375    
-0.375    -0.325    -0.325    -0.275    -0.275    
-0.475    -0.475    -0.425    -0.425    -0.375    
-0.375    -0.325    -0.325    -0.275    -0.275    
-0.475    -0.475    -0.425    -0.425    -0.375    
-0.375    -0.325    -0.325    -0.275    -0.275    
-0.475    -0.475    -0.425    -0.425    -0.375    
-0.375    -0.325    -0.325    -0.275    -0.275    
-0.475    -0.475    -0.425    -0.425    -0.375    
-0.375    -0.325    -0.325    -0.275    -0.275    
-0.475    -0.475    -0.425    -0.425    -0.375    
-0.375    -0.325    -0.325    -0.275    -0.275    
-0.475    -0.475    -0.425    -0.425    -0.375    
-0.375    -0.325    -0.325    -0.275    -0.275    
-0.475    -0.475    -0.425    -0.425    -0.375    
-0.375    -0.325    -0.325    -0.275    -0.275    
-0.475    -0.425    -0.375    -0.325    -0.275    
-0.475    -0.425    -0.375    -0.325    -0.275    
-0.475    -0.425    -0.375    -0.325    -0.275    
-0.475    -0.425    -0.375    -0.325    -0.275    
-0.475    -0.425    -0.375    -0.325    -0.275    
-0.475    -0.425    -0.375    -0.325    -0.275    
-0.475    -0.425    -0.375    -0.325    -0.275    
-0.475    -0.425    -0.375    -0.325    -0.275    
-0.475    -0.425    -0.375    -0.325    -0.275    
-0.475    -0.425    -0.375    -0.325    -0.275    
-0.475    -0.425    -0.375    -0.325    -0.275    
-0.475    -0.425    -0.375    -0.325    -0.275    
-0.475    -0.425    -0.375    -0.325    -0.275    
-0.475    -0.425    -0.375    -0.325    -0.275    
-0.475    -0.425    -0.375    -0.325    -0.275    
-0.475    -0.425    -0.375    -0.325    -0.275    
-0.475    -0.425    -0.375    -0.325    -0.275    
-0.475    -0.425    -0.375    -0.325    -0.275    
-0.475    -0.425    -0.375    -0.325    -0.275    
-0.475    -0.425    -0.375    -0.325    -0.275    
-0.475    -0.425    -0.375    -0.325    -0.275    
-0.475    -0.425    -0.375    -0.325    -0.275    
-0.475    -0.425    -0.375    -0.325    -0.275    
-0.475    -0.425    -0.375    -0.325    -0.275    
-0.475    -0.425    -0.375    -0.325    -0.275    
-0.475    -0.425    -0.375    -0.325    -0.275    
-0.475    -0.425    -0.375    -0.325    -0.275    
-0.475    -0.425    -0.375    -0.325    -0.275    
-0.475    -0.425    -0.375    -0.325    -0.275    
-0.475    -0.425    -0.375    -0.325    -0.275    
-0.475    -0.425    -0.375    -0.325    -0.275    

67     73     2     3     69     75     5     6     
3     2     73     67     4     1     74     68     
73     74     1     2     79     80     13     14     
74     73     67     68     140     139     133     134     
69     75     5     6     70     76     7     8     
75     73     2     5     81     79     14     15     
73     75     69     67     139     141     135     133     
70     76     7     8     71     77     9     10     
76     75     5     7     82     81     15     16     
75     76     70     69     141     142     136     135     
71     77     9     10     72     78     11     12     
77     76     7     9     83     82     16     17     
76     77     71     70     142     143     137     136     
78     77     9     11     84     83     17     18     
77     78     72     71     143     144     138     137     
79     80     13     14     85     86     19     20     
80     79     73     74     146     145     139     140     
81     79     14     15     87     85     20     21     
79     81     75     73     145     147     141     139     
82     81     15     16     88     87     21     22     
81     82     76     75     147     148     142     141     
83     82     16     17     89     88     22     23     
82     83     77     76     148     149     143     142     
84     83     17     18     90     89     23     24     
83     84     78     77     149     150     144     143     
85     86     19     20     91     92     25     26     
86     85     79     80     152     151     145     146     
87     85     20     21     93     91     26     27     
85     87     81     79     151     153     147     145     
88     87     21     22     94     93     27     28     
87     88     82     81     153     154     148     147     
89     88     22     23     95     94     28     29     
88     89     83     82     154     155     149     148     
90     89     23     24     96     95     29     30     
89     90     84     83     155     156     150     149     
91     92     25     26     97     98     31     32     
92     91     85     86     158     157     151     152     
93     91     26     27     99     97     32     33     
91     93     87     85     157     159     153     151     
94     93     27     28     100     99     33     34     
93     94     88     87     159     160     154     153     
95     94     28     29     101     100     34     35     
94     95     89     88     160     161     155     154     
96     95     29     30     102     101     35     36     
95     96     90     89     161     162     156     155     
97     98     31     32     103     104     37     38     
98     97     91     92     164     163     157     158     
99     97     32     33     105     103     38     39     
97     99     93     91     163     165     159     157     
100     99     33     34     106     105     39     40     
99     100     94     93     165     166     160     159     
101     100     34     35     107     106     40     41     
100     101     95     94     166     167     161     160     
102     101     35     36     108     107     41     42     
101     102     96     95     167     168     162     161     
103     104     37     38     109     110     43     44     
104     103     97     98     170     169     163     164     
105     103     38     39     111     109     44     45     
103     105     99     97     169     171     165     163     
106     105     39     40     112     111     45     46     
105     106     100     99     171     172     166     165     
107     106     40     41     113     112     46     47     
106     107     101     100     172     173     167     166     
108     107     41     42     114     113     47     48     
107     108     102     101     173     174     168     167     
109     110     43     44     115     116     49     50     
110     109     103     104     176     175     169     170     
111     109     44     45     117     115     50     51     
109     111     105     103     175     177     171     169     
112     111     45     46     118     117     51     52     
111     112     106     105     177     178     172     171     
113     112     46     47     119     118     52     53     
112     113     107     106     178     179     173     172     
114     113     47     48     120     119     53     54     
113     114     108     107     179     180     174     173     
115     116     49     50     121     122     55     56     
116     115     109     110     182     181     175     176     
117     115     50     51     123     121     56     57     
115     117     111     109     181     183     177     175     
118     117     51     52     124     123     57     58     
117     118     112     111     183     184     178     177     
119     118     52     53     125     124     58     59     
118     119     113     112     184     185     179     178     
120     119     53     54     126     125     59     60     
119     120     114     113     185     186     180     179     
121     122     55     56     127     128     61     62     
122     121     115     116     188     187     181     182     
123     121     56     57     129     127     62     63     
121     123     117     115     187     189     183     181     
124     123     57     58     130     129     63     64     
123     124     118     117     189     190     184     183     
125     124     58     59     131     130     64     65     
124     125     119     118     190     191     185     184     
126     125     59     60     132     131     65     66     
125     126     120     119     191     192     186     185     
128     127     121     122     194     193     187     188     
127     129     123     121     193     195     189     187     
129     130     124     123     195     196     190     189     
130     131     125     124     196     197     191     190     
131     132     126     125     197     198     192     191     
140     139     133     134     206     205     199     200     
139     141     135     133     205     207     201     199     
141     142     136     135     207     208     202     201     
142     143     137     136     208     209     203     202     
143     144     138     137     209     210     204     203     
146     145     139     140     212     211     205     206     
145     147     141     139     211     213     207     205     
147     148     142     141     213     214     208     207     
148     149     143     142     214     215     209     208     
149     150     144     143     215     216     210     209     
152     151     145     146     218     217     211     212     
151     153     147     145     217     219     213     211     
153     154     148     147     219     220     214     213     
154     155     149     148     220     221     215     214     
155     156     150     149     221     222     216     215     
158     157     151     152     224     223     217     218     
157     159     153     151     223     225     219     217     
159     160     154     153     225     226     220     219     
160     161     155     154     226     227     221     220     
161     162     156     155     227     228     222     221     
164     163     157     158     230     229     223     224     
163     165     159     157     229     231     225     223     
165     166     160     159     231     232     226     225     
166     167     161     160     232     233     227     226     
167     168     162     161     233     234     228     227     
170     169     163     164     236     235     229     230     
169     171     165     163     235     237     231     229     
171     172     166     165     237     238     232     231     
172     173     167     166     238     239     233     232     
173     174     168     167     239     240     234     233     
176     175     169     170     242     241     235     236     
175     177     171     169     241     243     237     235     
177     178     172     171     243     244     238     237     
178     179     173     172     244     245     239     238     
179     180     174     173     245     246     240     239     
182     181     175     176     248     247     241     242     
181     183     177     175     247     249     243     241     
183     184     178     177     249     250     244     243     
184     185     179     178     250     251     245     244     
185     186     180     179     251     252     246     245     
188     187     181     182     254     253     247     248     
187     189     183     181     253     255     249     247     
189     190     184     183     255     256     250     249     
190     191     185     184     256     257     251     250     
191     192     186     185     257     258     252     251     
194     193     187     188     260     259     253     254     
193     195     189     187     259     261     255     253     
195     196     190     189     261     262     256     255     
196     197     191     190     262     263     257     256     
197     198     192     191     263     264     258     257     
206     205     199     200     272     271     265     266     
205     207     201     199     271     273     267     265     
207     208     202     201     273     274     268     267     
208     209     203     202     274     275     269     268     
209     210     204     203     275     276     270     269     
212     211     205     206     278     277     271     272     
211     213     207     205     277     279     273     271     
213     214     208     207     279     280     274     273     
214     215     209     208     280     281     275     274     
215     216     210     209     281     282     276     275     
218     217     211     212     284     283     277     278     
217     219     213     211     283     285     279     277     
219     220     214     213     285     286     280     279     
220     221     215     214     286     287     281     280     
221     222     216     215     287     288     282     281     
224     223     217     218     290     289     283     284     
223     225     219     217     289     291     285     283     
225     226     220     219     291     292     286     285     
226     227     221     220     292     293     287     286     
227     228     222     221     293     294     288     287     
230     229     223     224     296     295     289     290     
229     231     225     223     295     297     291     289     
231     232     226     225     297     298     292     291     
232     233     227     226     298     299     293     292     
233     234     228     227     299     300     294     293     
236     235     229     230     302     301     295     296     
235     237     231     229     301     303     297     295     
237     238     232     231     303     304     298     297     
238     239     233     232     304     305     299     298     
239     240     234     233     305     306     300     299     
242     241     235     236     308     307     301     302     
241     243     237     235     307     309     303     301     
243     244     238     237     309     310     304     303     
244     245     239     238     310     311     305     304     
245     246     240     239     311     312     306     305     
248     247     241     242     314     313     307     308     
247     249     243     241     313     315     309     307     
249     250     244     243     315     316     310     309     
250     251     245     244     316     317     311     310     
251     252     246     245     317     318     312     311     
254     253     247     248     320     319     313     314     
253     255     249     247     319     321     315     313     
255     256     250     249     321     322     316     315     
256     257     251     250     322     323     317     316     
257     258     252     251     323     324     318     317     
260     259     253     254     326     325     319     320     
259     261     255     253     325     327     321     319     
261     262     256     255     327     328     322     321     
262     263     257     256     328     329     323     322     
263     264     258     257     329     330     324     323     
272     271     265     266     338     337     331     332     