Title = " tecplot file for 2D Cavity problem " 
variables = "x", "y", "z", "velX", "cellCentroidY" 
Zone T = "nmesh0" N = 396 E = 250 DATAPACKING = BLOCK, VARLOCATION = ([4-5]=CELLCENTERED), ZONETYPE=FEBRICK
0.0    -2.7755575616e-17    0.0    0.0    -2.7755575616e-17    
-2.7755575616e-17    0.0    0.0    0.0    0.0    
0.0    0.0    0.0    -2.7755575616e-17    -2.7755575616e-17    
0.0    0.0    0.0    0.0    -2.7755575616e-17    
-2.7755575616e-17    0.0    0.0    0.0    0.0    
-2.7755575616e-17    -2.7755575616e-17    0.0    0.0    0.0    
0.0    -2.7755575616e-17    -2.7755575616e-17    0.0    0.0    
0.0    0.0    -2.7755575616e-17    -2.7755575616e-17    0.0    
0.0    0.0    0.0    -2.7755575616e-17    -2.7755575616e-17    
0.0    0.0    0.0    0.0    -2.7755575616e-17    
-2.7755575616e-17    0.0    0.0    0.0    0.0    
-2.7755575616e-17    -2.7755575616e-17    0.0    0.0    0.0    
0.0    -2.7755575616e-17    -2.7755575616e-17    0.0    0.0    
0.0    -0.05    -0.05    -0.05    -0.05    
-0.05    -0.05    -0.05    -0.05    -0.05    
-0.05    -0.05    -0.05    -0.05    -0.05    
-0.05    -0.05    -0.05    -0.05    -0.05    
-0.05    -0.05    -0.05    -0.05    -0.05    
-0.05    -0.05    -0.05    -0.05    -0.05    
-0.05    -0.05    -0.05    -0.05    -0.05    
-0.05    -0.05    -0.05    -0.05    -0.05    
-0.05    -0.05    -0.05    -0.05    -0.05    
-0.05    -0.05    -0.05    -0.05    -0.05    
-0.05    -0.05    -0.05    -0.05    -0.05    
-0.05    -0.05    -0.05    -0.05    -0.05    
-0.05    -0.05    -0.05    -0.05    -0.05    
-0.05    -0.05    -0.1    -0.1    -0.1    
-0.1    -0.1    -0.1    -0.1    -0.1    
-0.1    -0.1    -0.1    -0.1    -0.1    
-0.1    -0.1    -0.1    -0.1    -0.1    
-0.1    -0.1    -0.1    -0.1    -0.1    
-0.1    -0.1    -0.1    -0.1    -0.1    
-0.1    -0.1    -0.1    -0.1    -0.1    
-0.1    -0.1    -0.1    -0.1    -0.1    
-0.1    -0.1    -0.1    -0.1    -0.1    
-0.1    -0.1    -0.1    -0.1    -0.1    
-0.1    -0.1    -0.1    -0.1    -0.1    
-0.1    -0.1    -0.1    -0.1    -0.1    
-0.1    -0.1    -0.1    -0.1    -0.1    
-0.1    -0.1    -0.1    -0.15    -0.15    
-0.15    -0.15    -0.15    -0.15    -0.15    
-0.15    -0.15    -0.15    -0.15    -0.15    
-0.15    -0.15    -0.15    -0.15    -0.15    
-0.15    -0.15    -0.15    -0.15    -0.15    
-0.15    -0.15    -0.15    -0.15    -0.15    
-0.15    -0.15    -0.15    -0.15    -0.15    
-0.15    -0.15    -0.15    -0.15    -0.15    
-0.15    -0.15    -0.15    -0.15    -0.15    
-0.15    -0.15    -0.15    -0.15    -0.15    
-0.15    -0.15    -0.15    -0.15    -0.15    
-0.15    -0.15    -0.15    -0.15    -0.15    
-0.15    -0.15    -0.15    -0.15    -0.15    
-0.15    -0.15    -0.15    -0.15    -0.2    
-0.2    -0.2    -0.2    -0.2    -0.2    
-0.2    -0.2    -0.2    -0.2    -0.2    
-0.2    -0.2    -0.2    -0.2    -0.2    
-0.2    -0.2    -0.2    -0.2    -0.2    
-0.2    -0.2    -0.2    -0.2    -0.2    
-0.2    -0.2    -0.2    -0.2    -0.2    
-0.2    -0.2    -0.2    -0.2    -0.2    
-0.2    -0.2    -0.2    -0.2    -0.2    
-0.2    -0.2    -0.2    -0.2    -0.2    
-0.2    -0.2    -0.2    -0.2    -0.2    
-0.2    -0.2    -0.2    -0.2    -0.2    
-0.2    -0.2    -0.2    -0.2    -0.2    
-0.2    -0.2    -0.2    -0.2    -0.2    
-0.25    -0.25    -0.25    -0.25    -0.25    
-0.25    -0.25    -0.25    -0.25    -0.25    
-0.25    -0.25    -0.25    -0.25    -0.25    
-0.25    -0.25    -0.25    -0.25    -0.25    
-0.25    -0.25    -0.25    -0.25    -0.25    
-0.25    -0.25    -0.25    -0.25    -0.25    
-0.25    -0.25    -0.25    -0.25    -0.25    
-0.25    -0.25    -0.25    -0.25    -0.25    
-0.25    -0.25    -0.25    -0.25    -0.25    
-0.25    -0.25    -0.25    -0.25    -0.25    
-0.25    -0.25    -0.25    -0.25    -0.25    
-0.25    -0.25    -0.25    -0.25    -0.25    
-0.25    -0.25    -0.25    -0.25    -0.25    
-0.25    
-0.25    -0.2    -0.2    -0.25    -0.15    
-0.15    -0.1    -0.1    -0.05    -0.05    
0.0    0.0    -0.25    -0.2    -0.15    
-0.1    -0.05    0.0    -0.25    -0.2    
-0.15    -0.1    -0.05    0.0    -0.25    
-0.2    -0.15    -0.1    -0.05    1.2325951644e-32    
-0.25    -0.2    -0.15    -0.1    -0.05    
0.0    -0.25    -0.2    -0.15    -0.1    
-0.05    0.0    -0.25    -0.2    -0.15    
-0.1    -0.05    0.0    -0.25    -0.2    
-0.15    -0.1    -0.05    0.0    -0.25    
-0.2    -0.15    -0.1    -0.05    0.0    
-0.25    -0.2    -0.15    -0.1    -0.05    
0.0    -0.2    -0.25    -0.15    -0.1    
-0.05    0.0    -0.25    -0.2    -0.15    
-0.1    -0.05    0.0    -0.25    -0.2    
-0.15    -0.1    -0.05    0.0    -0.25    
-0.2    -0.15    -0.1    -0.05    0.0    
-0.25    -0.2    -0.15    -0.1    -0.05    
2.7755575616e-18    -0.25    -0.2    -0.15    -0.1    
-0.05    0.0    -0.25    -0.2    -0.15    
-0.1    -0.05    0.0    -0.25    -0.2    
-0.15    -0.1    -0.05    0.0    -0.25    
-0.2    -0.15    -0.1    -0.05    0.0    
-0.25    -0.2    -0.15    -0.1    -0.05    
0.0    -0.25    -0.2    -0.15    -0.1    
-0.05    0.0    -0.2    -0.25    -0.15    
-0.1    -0.05    0.0    -0.25    -0.2    
-0.15    -0.1    -0.05    0.0    -0.25    
-0.2    -0.15    -0.1    -0.05    0.0    
-0.25    -0.2    -0.15    -0.1    -0.05    
0.0    -0.25    -0.2    -0.15    -0.1    
-0.05    5.5511151231e-18    -0.25    -0.2    -0.15    
-0.1    -0.05    0.0    -0.25    -0.2    
-0.15    -0.1    -0.05    0.0    -0.25    
-0.2    -0.15    -0.1    -0.05    0.0    
-0.25    -0.2    -0.15    -0.1    -0.05    
0.0    -0.25    -0.2    -0.15    -0.1    
-0.05    0.0    -0.25    -0.2    -0.15    
-0.1    -0.05    0.0    -0.2    -0.25    
-0.15    -0.1    -0.05    0.0    -0.25    
-0.2    -0.15    -0.1    -0.05    0.0    
-0.25    -0.2    -0.15    -0.1    -0.05    
0.0    -0.25    -0.2    -0.15    -0.1    
-0.05    0.0    -0.25    -0.2    -0.15    
-0.1    -0.05    8.3266726847e-18    -0.25    -0.2    
-0.15    -0.1    -0.05    -2.7755575616e-17    -0.25    
-0.2    -0.15    -0.1    -0.05    -2.7755575616e-17    
-0.25    -0.2    -0.15    -0.1    -0.05    
0.0    -0.25    -0.2    -0.15    -0.1    
-0.05    0.0    -0.25    -0.2    -0.15    
-0.1    -0.05    -2.7755575616e-17    -0.25    -0.2    
-0.15    -0.1    -0.05    -2.7755575616e-17    -0.2    
-0.25    -0.15    -0.1    -0.05    0.0    
-0.25    -0.2    -0.15    -0.1    -0.05    
0.0    -0.25    -0.2    -0.15    -0.1    
-0.05    0.0    -0.25    -0.2    -0.15    
-0.1    -0.05    0.0    -0.25    -0.2    
-0.15    -0.1    -0.05    1.1102230246e-17    -0.25    
-0.2    -0.15    -0.1    -0.05    0.0    
-0.25    -0.2    -0.15    -0.1    -0.05    
0.0    -0.25    -0.2    -0.15    -0.1    
-0.05    0.0    -0.25    -0.2    -0.15    
-0.1    -0.05    0.0    -0.25    -0.2    
-0.15    -0.1    -0.05    0.0    -0.25    
-0.2    -0.15    -0.1    -0.05    0.0    
-0.2    -0.25    -0.15    -0.1    -0.05    
0.0    -0.25    -0.2    -0.15    -0.1    
-0.05    0.0    -0.25    -0.2    -0.15    
-0.1    -0.05    0.0    -0.25    -0.2    
-0.15    -0.1    -0.05    0.0    -0.25    
-0.2    -0.15    -0.1    -0.05    1.3877787808e-17    
-0.25    -0.2    -0.15    -0.1    -0.05    
0.0    -0.25    -0.2    -0.15    -0.1    
-0.05    0.0    -0.25    -0.2    -0.15    
-0.1    -0.05    0.0    -0.25    -0.2    
-0.15    -0.1    -0.05    0.0    -0.25    
-0.2    -0.15    -0.1    -0.05    0.0    
-0.25    -0.2    -0.15    -0.1    -0.05    
0.0    
-0.05    -0.05    0.0    0.0    -0.05    
0.0    -0.05    0.0    -0.05    0.0    
-0.05    0.0    -0.1    -0.1    -0.1    
-0.1    -0.1    -0.1    -0.15    -0.15    
-0.15    -0.15    -0.15    -0.15    -0.2    
-0.2    -0.2    -0.2    -0.2    -0.2    
-0.25    -0.25    -0.25    -0.25    -0.25    
-0.25    -0.3    -0.3    -0.3    -0.3    
-0.3    -0.3    -0.35    -0.35    -0.35    
-0.35    -0.35    -0.35    -0.4    -0.4    
-0.4    -0.4    -0.4    -0.4    -0.45    
-0.45    -0.45    -0.45    -0.45    -0.45    
-0.5    -0.5    -0.5    -0.5    -0.5    
-0.5    0.0    0.0    0.0    0.0    
0.0    0.0    -0.05    -0.05    -0.05    
-0.05    -0.05    -0.05    -0.1    -0.1    
-0.1    -0.1    -0.1    -0.1    -0.15    
-0.15    -0.15    -0.15    -0.15    -0.15    
-0.2    -0.2    -0.2    -0.2    -0.2    
-0.2    -0.25    -0.25    -0.25    -0.25    
-0.25    -0.25    -0.3    -0.3    -0.3    
-0.3    -0.3    -0.3    -0.35    -0.35    
-0.35    -0.35    -0.35    -0.35    -0.4    
-0.4    -0.4    -0.4    -0.4    -0.4    
-0.45    -0.45    -0.45    -0.45    -0.45    
-0.45    -0.5    -0.5    -0.5    -0.5    
-0.5    -0.5    0.0    0.0    0.0    
0.0    0.0    0.0    -0.05    -0.05    
-0.05    -0.05    -0.05    -0.05    -0.1    
-0.1    -0.1    -0.1    -0.1    -0.1    
-0.15    -0.15    -0.15    -0.15    -0.15    
-0.15    -0.2    -0.2    -0.2    -0.2    
-0.2    -0.2    -0.25    -0.25    -0.25    
-0.25    -0.25    -0.25    -0.3    -0.3    
-0.3    -0.3    -0.3    -0.3    -0.35    
-0.35    -0.35    -0.35    -0.35    -0.35    
-0.4    -0.4    -0.4    -0.4    -0.4    
-0.4    -0.45    -0.45    -0.45    -0.45    
-0.45    -0.45    -0.5    -0.5    -0.5    
-0.5    -0.5    -0.5    0.0    0.0    
0.0    0.0    0.0    0.0    -0.05    
-0.05    -0.05    -0.05    -0.05    -0.05    
-0.1    -0.1    -0.1    -0.1    -0.1    
-0.1    -0.15    -0.15    -0.15    -0.15    
-0.15    -0.15    -0.2    -0.2    -0.2    
-0.2    -0.2    -0.2    -0.25    -0.25    
-0.25    -0.25    -0.25    -0.25    -0.3    
-0.3    -0.3    -0.3    -0.3    -0.3    
-0.35    -0.35    -0.35    -0.35    -0.35    
-0.35    -0.4    -0.4    -0.4    -0.4    
-0.4    -0.4    -0.45    -0.45    -0.45    
-0.45    -0.45    -0.45    -0.5    -0.5    
-0.5    -0.5    -0.5    -0.5    0.0    
0.0    0.0    0.0    0.0    0.0    
-0.05    -0.05    -0.05    -0.05    -0.05    
-0.05    -0.1    -0.1    -0.1    -0.1    
-0.1    -0.1    -0.15    -0.15    -0.15    
-0.15    -0.15    -0.15    -0.2    -0.2    
-0.2    -0.2    -0.2    -0.2    -0.25    
-0.25    -0.25    -0.25    -0.25    -0.25    
-0.3    -0.3    -0.3    -0.3    -0.3    
-0.3    -0.35    -0.35    -0.35    -0.35    
-0.35    -0.35    -0.4    -0.4    -0.4    
-0.4    -0.4    -0.4    -0.45    -0.45    
-0.45    -0.45    -0.45    -0.45    -0.5    
-0.5    -0.5    -0.5    -0.5    -0.5    
0.0    0.0    0.0    0.0    0.0    
0.0    -0.05    -0.05    -0.05    -0.05    
-0.05    -0.05    -0.1    -0.1    -0.1    
-0.1    -0.1    -0.1    -0.15    -0.15    
-0.15    -0.15    -0.15    -0.15    -0.2    
-0.2    -0.2    -0.2    -0.2    -0.2    
-0.25    -0.25    -0.25    -0.25    -0.25    
-0.25    -0.3    -0.3    -0.3    -0.3    
-0.3    -0.3    -0.35    -0.35    -0.35    
-0.35    -0.35    -0.35    -0.4    -0.4    
-0.4    -0.4    -0.4    -0.4    -0.45    
-0.45    -0.45    -0.45    -0.45    -0.45    
-0.5    -0.5    -0.5    -0.5    -0.5    
-0.5    
370.074552784    376.727502061    377.268907309    377.268907257    362.049809953    
370.760449743    370.760449693    352.319453987    362.902616764    362.902616709    
340.501271351    353.363367574    353.363367517    341.760123545    341.760123495    
378.344960782    377.797582341    372.125790462    371.430381693    364.603632097    
363.735824714    355.450979573    354.383664299    344.28590766    342.991033954    
379.941059943    378.848362059    374.155917917    372.763991972    367.140939325    
365.397834542    358.577794567    356.424196167    348.08899297    345.461005109    
382.032786611    380.407037668    376.824744615    374.74705542    370.49018804    
367.877164158    362.727211844    359.480849313    353.170569358    349.180653811    
384.583469584    382.449828858    380.0906227    377.354207972    374.607812378    
371.15023219    367.859736546    363.537770878    359.506082949    354.151794885    
387.541881982    384.940989945    383.8921981    380.544888952    379.423823173    
375.174691564    373.900817724    368.556757979    367.025299983    360.351141383    
390.840799516    387.830545123    388.145400727    384.259262015    384.83595396    
379.882333792    380.729952755    374.465276259    375.592640491    367.710648436    
394.397136013    391.052865054    392.742806936    388.415245196    390.707281964    
385.173311247    388.174652195    381.145699473    384.99371313    376.098073201    
398.114157976    394.526788601    397.556349994    392.907866034    396.869230494    
390.913766279    396.013000329    388.42931284    394.935343313    385.303602564    
398.157784237    397.611904577    396.938750697    396.098775993    395.039773794    
378.344960666    372.125790337    364.603631962    355.45097944    344.285907546    
378.848361987    372.763991895    365.397834459    356.424196091    345.46100504    
379.848958822    374.034527773    366.98219824    358.370844299    347.819442657    
381.333313953    375.924012944    369.346074253    361.287516386    351.372240685    
383.27890051    378.408497908    372.467370607    365.159779178    356.122341261    
385.651797558    381.44955959    376.306124179    369.951931338    362.048859244    
388.404503957    384.990360986    380.797638524    375.595400194    369.08801644    
391.474554312    388.95276612    385.846868799    381.978270568    377.114189313    
394.784615355    393.236684636    391.326074911    388.939380555    385.926753065    
398.244541873    397.722581087    397.077577542    396.270594292    395.249798554    
379.941059745    374.155917705    367.1409391    358.577794352    348.088992776    
380.407037506    374.747055244    367.877163978    359.480849135    349.180653667    
381.333313856    375.924012841    369.346074146    361.287516285    351.372240602    
382.707569834    377.674608396    371.538183198    363.995310616    354.675158698    
384.509104197    379.976935872    374.43351596    367.591744648    359.093743968    
386.70666814    382.795688008    377.995553481    372.044667289    364.610388883    
389.25640317    386.078435722    382.164743186    377.291268043    371.167433741    
392.100522633    389.752882793    386.853151419    383.228085075    378.649031889    
395.16737525    393.726204317    391.942171654    389.705277661    386.868394672    
398.373345079    397.887358984    397.285041807    396.52862739    395.567234307    
382.032786313    376.824744305    370.490187712    362.727211504    353.170569016    
382.449828577    377.354207675    371.150231875    363.53777056    354.15179457    
383.278900285    378.40849767    372.467370356    365.159778923    356.122341004    
384.509104067    379.976935733    374.433515813    367.591744491    359.093743793    
386.122074816    382.04020079    377.031307972    370.823450922    363.071673929    
388.090007333    384.56697528    380.228582291    374.827117367    368.042307849    
390.37376948    387.510536194    383.972411916    379.547278771    373.95561536    
392.921681716    390.806216546    388.184156991    384.891510869    380.708465669    
395.669545867    394.370752588    392.757279809    390.725006624    388.132547675    
398.542341717    398.104340595    397.559557082    396.872243656    395.993513294    

-0.175    -0.225    -0.225    -0.225    -0.125    
-0.175    -0.175    -0.075    -0.125    -0.125    
-0.025    -0.075    -0.075    -0.025    -0.025    
-0.225    -0.225    -0.175    -0.175    -0.125    
-0.125    -0.075    -0.075    -0.025    -0.025    
-0.225    -0.225    -0.175    -0.175    -0.125    
-0.125    -0.075    -0.075    -0.025    -0.025    
-0.225    -0.225    -0.175    -0.175    -0.125    
-0.125    -0.075    -0.075    -0.025    -0.025    
-0.225    -0.225    -0.175    -0.175    -0.125    
-0.125    -0.075    -0.075    -0.025    -0.025    
-0.225    -0.225    -0.175    -0.175    -0.125    
-0.125    -0.075    -0.075    -0.025    -0.025    
-0.225    -0.225    -0.175    -0.175    -0.125    
-0.125    -0.075    -0.075    -0.025    -0.025    
-0.225    -0.225    -0.175    -0.175    -0.125    
-0.125    -0.075    -0.075    -0.025    -0.025    
-0.225    -0.225    -0.175    -0.175    -0.125    
-0.125    -0.075    -0.075    -0.025    -0.025    
-0.225    -0.175    -0.125    -0.075    -0.025    
-0.225    -0.175    -0.125    -0.075    -0.025    
-0.225    -0.175    -0.125    -0.075    -0.025    
-0.225    -0.175    -0.125    -0.075    -0.025    
-0.225    -0.175    -0.125    -0.075    -0.025    
-0.225    -0.175    -0.125    -0.075    -0.025    
-0.225    -0.175    -0.125    -0.075    -0.025    
-0.225    -0.175    -0.125    -0.075    -0.025    
-0.225    -0.175    -0.125    -0.075    -0.025    
-0.225    -0.175    -0.125    -0.075    -0.025    
-0.225    -0.175    -0.125    -0.075    -0.025    
-0.225    -0.175    -0.125    -0.075    -0.025    
-0.225    -0.175    -0.125    -0.075    -0.025    
-0.225    -0.175    -0.125    -0.075    -0.025    
-0.225    -0.175    -0.125    -0.075    -0.025    
-0.225    -0.175    -0.125    -0.075    -0.025    
-0.225    -0.175    -0.125    -0.075    -0.025    
-0.225    -0.175    -0.125    -0.075    -0.025    
-0.225    -0.175    -0.125    -0.075    -0.025    
-0.225    -0.175    -0.125    -0.075    -0.025    
-0.225    -0.175    -0.125    -0.075    -0.025    
-0.225    -0.175    -0.125    -0.075    -0.025    
-0.225    -0.175    -0.125    -0.075    -0.025    
-0.225    -0.175    -0.125    -0.075    -0.025    
-0.225    -0.175    -0.125    -0.075    -0.025    
-0.225    -0.175    -0.125    -0.075    -0.025    
-0.225    -0.175    -0.125    -0.075    -0.025    
-0.225    -0.175    -0.125    -0.075    -0.025    
-0.225    -0.175    -0.125    -0.075    -0.025    
-0.225    -0.175    -0.125    -0.075    -0.025    
-0.225    -0.175    -0.125    -0.075    -0.025    

67     74     2     3     69     75     5     6     
3     2     74     67     4     1     73     68     
74     73     1     2     80     79     13     14     
73     74     67     68     139     140     133     134     
69     75     5     6     70     76     7     8     
75     74     2     5     81     80     14     15     
74     75     69     67     140     141     135     133     
70     76     7     8     71     77     9     10     
76     75     5     7     82     81     15     16     
75     76     70     69     141     142     136     135     
71     77     9     10     72     78     11     12     
77     76     7     9     83     82     16     17     
76     77     71     70     142     143     137     136     
78     77     9     11     84     83     17     18     
77     78     72     71     143     144     138     137     
80     79     13     14     86     85     19     20     
79     80     74     73     145     146     140     139     
81     80     14     15     87     86     20     21     
80     81     75     74     146     147     141     140     
82     81     15     16     88     87     21     22     
81     82     76     75     147     148     142     141     
83     82     16     17     89     88     22     23     
82     83     77     76     148     149     143     142     
84     83     17     18     90     89     23     24     
83     84     78     77     149     150     144     143     
86     85     19     20     92     91     25     26     
85     86     80     79     151     152     146     145     
87     86     20     21     93     92     26     27     
86     87     81     80     152     153     147     146     
88     87     21     22     94     93     27     28     
87     88     82     81     153     154     148     147     
89     88     22     23     95     94     28     29     
88     89     83     82     154     155     149     148     
90     89     23     24     96     95     29     30     
89     90     84     83     155     156     150     149     
92     91     25     26     98     97     31     32     
91     92     86     85     157     158     152     151     
93     92     26     27     99     98     32     33     
92     93     87     86     158     159     153     152     
94     93     27     28     100     99     33     34     
93     94     88     87     159     160     154     153     
95     94     28     29     101     100     34     35     
94     95     89     88     160     161     155     154     
96     95     29     30     102     101     35     36     
95     96     90     89     161     162     156     155     
98     97     31     32     104     103     37     38     
97     98     92     91     163     164     158     157     
99     98     32     33     105     104     38     39     
98     99     93     92     164     165     159     158     
100     99     33     34     106     105     39     40     
99     100     94     93     165     166     160     159     
101     100     34     35     107     106     40     41     
100     101     95     94     166     167     161     160     
102     101     35     36     108     107     41     42     
101     102     96     95     167     168     162     161     
104     103     37     38     110     109     43     44     
103     104     98     97     169     170     164     163     
105     104     38     39     111     110     44     45     
104     105     99     98     170     171     165     164     
106     105     39     40     112     111     45     46     
105     106     100     99     171     172     166     165     
107     106     40     41     113     112     46     47     
106     107     101     100     172     173     167     166     
108     107     41     42     114     113     47     48     
107     108     102     101     173     174     168     167     
110     109     43     44     116     115     49     50     
109     110     104     103     175     176     170     169     
111     110     44     45     117     116     50     51     
110     111     105     104     176     177     171     170     
112     111     45     46     118     117     51     52     
111     112     106     105     177     178     172     171     
113     112     46     47     119     118     52     53     
112     113     107     106     178     179     173     172     
114     113     47     48     120     119     53     54     
113     114     108     107     179     180     174     173     
116     115     49     50     122     121     55     56     
115     116     110     109     181     182     176     175     
117     116     50     51     123     122     56     57     
116     117     111     110     182     183     177     176     
118     117     51     52     124     123     57     58     
117     118     112     111     183     184     178     177     
119     118     52     53     125     124     58     59     
118     119     113     112     184     185     179     178     
120     119     53     54     126     125     59     60     
119     120     114     113     185     186     180     179     
122     121     55     56     128     127     61     62     
121     122     116     115     187     188     182     181     
123     122     56     57     129     128     62     63     
122     123     117     116     188     189     183     182     
124     123     57     58     130     129     63     64     
123     124     118     117     189     190     184     183     
125     124     58     59     131     130     64     65     
124     125     119     118     190     191     185     184     
126     125     59     60     132     131     65     66     
125     126     120     119     191     192     186     185     
127     128     122     121     193     194     188     187     
128     129     123     122     194     195     189     188     
129     130     124     123     195     196     190     189     
130     131     125     124     196     197     191     190     
131     132     126     125     197     198     192     191     
139     140     133     134     205     206     199     200     
140     141     135     133     206     207     201     199     
141     142     136     135     207     208     202     201     
142     143     137     136     208     209     203     202     
143     144     138     137     209     210     204     203     
145     146     140     139     211     212     206     205     
146     147     141     140     212     213     207     206     
147     148     142     141     213     214     208     207     
148     149     143     142     214     215     209     208     
149     150     144     143     215     216     210     209     
151     152     146     145     217     218     212     211     
152     153     147     146     218     219     213     212     
153     154     148     147     219     220     214     213     
154     155     149     148     220     221     215     214     
155     156     150     149     221     222     216     215     
157     158     152     151     223     224     218     217     
158     159     153     152     224     225     219     218     
159     160     154     153     225     226     220     219     
160     161     155     154     226     227     221     220     
161     162     156     155     227     228     222     221     
163     164     158     157     229     230     224     223     
164     165     159     158     230     231     225     224     
165     166     160     159     231     232     226     225     
166     167     161     160     232     233     227     226     
167     168     162     161     233     234     228     227     
169     170     164     163     235     236     230     229     
170     171     165     164     236     237     231     230     
171     172     166     165     237     238     232     231     
172     173     167     166     238     239     233     232     
173     174     168     167     239     240     234     233     
175     176     170     169     241     242     236     235     
176     177     171     170     242     243     237     236     
177     178     172     171     243     244     238     237     
178     179     173     172     244     245     239     238     
179     180     174     173     245     246     240     239     
181     182     176     175     247     248     242     241     
182     183     177     176     248     249     243     242     
183     184     178     177     249     250     244     243     
184     185     179     178     250     251     245     244     
185     186     180     179     251     252     246     245     
187     188     182     181     253     254     248     247     
188     189     183     182     254     255     249     248     
189     190     184     183     255     256     250     249     
190     191     185     184     256     257     251     250     
191     192     186     185     257     258     252     251     
193     194     188     187     259     260     254     253     
194     195     189     188     260     261     255     254     
195     196     190     189     261     262     256     255     
196     197     191     190     262     263     257     256     
197     198     192     191     263     264     258     257     
205     206     199     200     271     272     265     266     
206     207     201     199     272     273     267     265     
207     208     202     201     273     274     268     267     
208     209     203     202     274     275     269     268     
209     210     204     203     275     276     270     269     
211     212     206     205     277     278     272     271     
212     213     207     206     278     279     273     272     
213     214     208     207     279     280     274     273     
214     215     209     208     280     281     275     274     
215     216     210     209     281     282     276     275     
217     218     212     211     283     284     278     277     
218     219     213     212     284     285     279     278     
219     220     214     213     285     286     280     279     
220     221     215     214     286     287     281     280     
221     222     216     215     287     288     282     281     
223     224     218     217     289     290     284     283     
224     225     219     218     290     291     285     284     
225     226     220     219     291     292     286     285     
226     227     221     220     292     293     287     286     
227     228     222     221     293     294     288     287     
229     230     224     223     295     296     290     289     
230     231     225     224     296     297     291     290     
231     232     226     225     297     298     292     291     
232     233     227     226     298     299     293     292     
233     234     228     227     299     300     294     293     
235     236     230     229     301     302     296     295     
236     237     231     230     302     303     297     296     
237     238     232     231     303     304     298     297     
238     239     233     232     304     305     299     298     
239     240     234     233     305     306     300     299     
241     242     236     235     307     308     302     301     
242     243     237     236     308     309     303     302     
243     244     238     237     309     310     304     303     
244     245     239     238     310     311     305     304     
245     246     240     239     311     312     306     305     
247     248     242     241     313     314     308     307     
248     249     243     242     314     315     309     308     
249     250     244     243     315     316     310     309     
250     251     245     244     316     317     311     310     
251     252     246     245     317     318     312     311     
253     254     248     247     319     320     314     313     
254     255     249     248     320     321     315     314     
255     256     250     249     321     322     316     315     
256     257     251     250     322     323     317     316     
257     258     252     251     323     324     318     317     
259     260     254     253     325     326     320     319     
260     261     255     254     326     327     321     320     