Title = " tecplot file for 2D Cavity problem " 
variables = "x", "y", "z", "velX", "cellCentroidY" 
Zone T = "nmesh0" N = 396 E = 250 DATAPACKING = BLOCK, VARLOCATION = ([4-5]=CELLCENTERED), ZONETYPE=FEBRICK
-0.25    -0.25    -0.25    -0.25    -0.25    
-0.25    -0.25    -0.25    -0.25    -0.25    
-0.25    -0.25    -0.25    -0.25    -0.25    
-0.25    -0.25    -0.25    -0.25    -0.25    
-0.25    -0.25    -0.25    -0.25    -0.25    
-0.25    -0.25    -0.25    -0.25    -0.25    
-0.25    -0.25    -0.25    -0.25    -0.25    
-0.25    -0.25    -0.25    -0.25    -0.25    
-0.25    -0.25    -0.25    -0.25    -0.25    
-0.25    -0.25    -0.25    -0.25    -0.25    
-0.25    -0.25    -0.25    -0.25    -0.25    
-0.25    -0.25    -0.25    -0.25    -0.25    
-0.25    -0.25    -0.25    -0.25    -0.25    
-0.25    -0.3    -0.3    -0.3    -0.3    
-0.3    -0.3    -0.3    -0.3    -0.3    
-0.3    -0.3    -0.3    -0.3    -0.3    
-0.3    -0.3    -0.3    -0.3    -0.3    
-0.3    -0.3    -0.3    -0.3    -0.3    
-0.3    -0.3    -0.3    -0.3    -0.3    
-0.3    -0.3    -0.3    -0.3    -0.3    
-0.3    -0.3    -0.3    -0.3    -0.3    
-0.3    -0.3    -0.3    -0.3    -0.3    
-0.3    -0.3    -0.3    -0.3    -0.3    
-0.3    -0.3    -0.3    -0.3    -0.3    
-0.3    -0.3    -0.3    -0.3    -0.3    
-0.3    -0.3    -0.3    -0.3    -0.3    
-0.3    -0.3    -0.35    -0.35    -0.35    
-0.35    -0.35    -0.35    -0.35    -0.35    
-0.35    -0.35    -0.35    -0.35    -0.35    
-0.35    -0.35    -0.35    -0.35    -0.35    
-0.35    -0.35    -0.35    -0.35    -0.35    
-0.35    -0.35    -0.35    -0.35    -0.35    
-0.35    -0.35    -0.35    -0.35    -0.35    
-0.35    -0.35    -0.35    -0.35    -0.35    
-0.35    -0.35    -0.35    -0.35    -0.35    
-0.35    -0.35    -0.35    -0.35    -0.35    
-0.35    -0.35    -0.35    -0.35    -0.35    
-0.35    -0.35    -0.35    -0.35    -0.35    
-0.35    -0.35    -0.35    -0.35    -0.35    
-0.35    -0.35    -0.35    -0.4    -0.4    
-0.4    -0.4    -0.4    -0.4    -0.4    
-0.4    -0.4    -0.4    -0.4    -0.4    
-0.4    -0.4    -0.4    -0.4    -0.4    
-0.4    -0.4    -0.4    -0.4    -0.4    
-0.4    -0.4    -0.4    -0.4    -0.4    
-0.4    -0.4    -0.4    -0.4    -0.4    
-0.4    -0.4    -0.4    -0.4    -0.4    
-0.4    -0.4    -0.4    -0.4    -0.4    
-0.4    -0.4    -0.4    -0.4    -0.4    
-0.4    -0.4    -0.4    -0.4    -0.4    
-0.4    -0.4    -0.4    -0.4    -0.4    
-0.4    -0.4    -0.4    -0.4    -0.4    
-0.4    -0.4    -0.4    -0.4    -0.45    
-0.45    -0.45    -0.45    -0.45    -0.45    
-0.45    -0.45    -0.45    -0.45    -0.45    
-0.45    -0.45    -0.45    -0.45    -0.45    
-0.45    -0.45    -0.45    -0.45    -0.45    
-0.45    -0.45    -0.45    -0.45    -0.45    
-0.45    -0.45    -0.45    -0.45    -0.45    
-0.45    -0.45    -0.45    -0.45    -0.45    
-0.45    -0.45    -0.45    -0.45    -0.45    
-0.45    -0.45    -0.45    -0.45    -0.45    
-0.45    -0.45    -0.45    -0.45    -0.45    
-0.45    -0.45    -0.45    -0.45    -0.45    
-0.45    -0.45    -0.45    -0.45    -0.45    
-0.45    -0.45    -0.45    -0.45    -0.45    
-0.5    -0.5    -0.5    -0.5    -0.5    
-0.5    -0.5    -0.5    -0.5    -0.5    
-0.5    -0.5    -0.5    -0.5    -0.5    
-0.5    -0.5    -0.5    -0.5    -0.5    
-0.5    -0.5    -0.5    -0.5    -0.5    
-0.5    -0.5    -0.5    -0.5    -0.5    
-0.5    -0.5    -0.5    -0.5    -0.5    
-0.5    -0.5    -0.5    -0.5    -0.5    
-0.5    -0.5    -0.5    -0.5    -0.5    
-0.5    -0.5    -0.5    -0.5    -0.5    
-0.5    -0.5    -0.5    -0.5    -0.5    
-0.5    -0.5    -0.5    -0.5    -0.5    
-0.5    -0.5    -0.5    -0.5    -0.5    
-0.5    
9.5409791179e-18    0.05    0.05    0.0    0.1    
0.1    0.15    0.15    0.2    0.2    
0.25    0.25    0.3    0.3    0.35    
0.35    0.4    0.4    0.45    0.45    
0.5    0.5    5.2041704279e-18    0.05    0.1    
0.15    0.2    0.25    0.3    0.35    
0.4    0.45    0.5    -6.9388939039e-18    0.05    
0.1    0.15    0.2    0.25    0.3    
0.35    0.4    0.45    0.5    -1.3877787808e-17    
0.05    0.1    0.15    0.2    0.25    
0.3    0.35    0.4    0.45    0.5    
-3.469446952e-18    0.05    0.1    0.15    0.2    
0.25    0.3    0.35    0.4    0.45    
0.5    0.0    1.1449174941e-17    0.05    0.05    
0.1    0.1    0.15    0.15    0.2    
0.2    0.25    0.25    0.3    0.3    
0.35    0.35    0.4    0.4    0.45    
0.45    0.5    0.5    6.2450045135e-18    0.05    
0.1    0.15    0.2    0.25    0.3    
0.35    0.4    0.45    0.5    -8.3266726847e-18    
0.05    0.1    0.15    0.2    0.25    
0.3    0.35    0.4    0.45    0.5    
-1.6653345369e-17    0.05    0.1    0.15    0.2    
0.25    0.3    0.35    0.4    0.45    
0.5    -4.1633363423e-18    0.05    0.1    0.15    
0.2    0.25    0.3    0.35    0.4    
0.45    0.5    0.0    1.3357370765e-17    0.05    
0.05    0.1    0.1    0.15    0.15    
0.2    0.2    0.25    0.25    0.3    
0.3    0.35    0.35    0.4    0.4    
0.45    0.45    0.5    0.5    7.2858385991e-18    
0.05    0.1    0.15    0.2    0.25    
0.3    0.35    0.4    0.45    0.5    
-9.7144514655e-18    0.05    0.1    0.15    0.2    
0.25    0.3    0.35    0.4    0.45    
0.5    -1.9428902931e-17    0.05    0.1    0.15    
0.2    0.25    0.3    0.35    0.4    
0.45    0.5    -4.8572257327e-18    0.05    0.1    
0.15    0.2    0.25    0.3    0.35    
0.4    0.45    0.5    0.0    1.5265566589e-17    
0.05    0.05    0.1    0.1    0.15    
0.15    0.2    0.2    0.25    0.25    
0.3    0.3    0.35    0.35    0.4    
0.4    0.45    0.45    0.5    0.5    
8.3266726847e-18    0.05    0.1    0.15    0.2    
0.25    0.3    0.35    0.4    0.45    
0.5    -1.1102230246e-17    0.05    0.1    0.15    
0.2    0.25    0.3    0.35    0.4    
0.45    0.5    -2.2204460493e-17    0.05    0.1    
0.15    0.2    0.25    0.3    0.35    
0.4    0.45    0.5    -5.5511151231e-18    0.05    
0.1    0.15    0.2    0.25    0.3    
0.35    0.4    0.45    0.5    0.0    
1.7173762412e-17    0.05    0.05    0.1    0.1    
0.15    0.15    0.2    0.2    0.25    
0.25    0.3    0.3    0.35    0.35    
0.4    0.4    0.45    0.45    0.5    
0.5    9.3675067703e-18    0.05    0.1    0.15    
0.2    0.25    0.3    0.35    0.4    
0.45    0.5    -1.2490009027e-17    0.05    0.1    
0.15    0.2    0.25    0.3    0.35    
0.4    0.45    0.5    -2.4980018054e-17    0.05    
0.1    0.15    0.2    0.25    0.3    
0.35    0.4    0.45    0.5    -6.2450045135e-18    
0.05    0.1    0.15    0.2    0.25    
0.3    0.35    0.4    0.45    0.5    
0.0    1.9081958236e-17    0.05    0.05    0.1    
0.1    0.15    0.15    0.2    0.2    
0.25    0.25    0.3    0.3    0.35    
0.35    0.4    0.4    0.45    0.45    
0.5    1.0408340856e-17    0.05    0.1    0.15    
0.2    0.25    0.3    0.35    0.4    
0.45    0.5    -1.3877787808e-17    0.05    0.1    
0.15    0.2    0.25    0.3    0.35    
0.4    0.45    0.5    -2.7755575616e-17    0.05    
0.1    0.15    0.2    0.25    0.3    
0.35    0.4    0.45    0.5    -6.9388939039e-18    
0.05    0.1    0.15    0.2    0.25    
0.3    0.35    0.4    0.45    0.5    
0.5    
0.45    0.45    0.5    0.5    0.45    
0.5    0.45    0.5    0.45    0.5    
0.45    0.5    0.45    0.5    0.45    
0.5    0.45    0.5    0.45    0.5    
0.45    0.5    0.4    0.4    0.4    
0.4    0.4    0.4    0.4    0.4    
0.4    0.4    0.4    0.35    0.35    
0.35    0.35    0.35    0.35    0.35    
0.35    0.35    0.35    0.35    0.3    
0.3    0.3    0.3    0.3    0.3    
0.3    0.3    0.3    0.3    0.3    
0.25    0.25    0.25    0.25    0.25    
0.25    0.25    0.25    0.25    0.25    
0.25    0.5    0.45    0.5    0.45    
0.5    0.45    0.5    0.45    0.5    
0.45    0.5    0.45    0.5    0.45    
0.5    0.45    0.5    0.45    0.5    
0.45    0.45    0.5    0.4    0.4    
0.4    0.4    0.4    0.4    0.4    
0.4    0.4    0.4    0.4    0.35    
0.35    0.35    0.35    0.35    0.35    
0.35    0.35    0.35    0.35    0.35    
0.3    0.3    0.3    0.3    0.3    
0.3    0.3    0.3    0.3    0.3    
0.3    0.25    0.25    0.25    0.25    
0.25    0.25    0.25    0.25    0.25    
0.25    0.25    0.5    0.45    0.5    
0.45    0.5    0.45    0.5    0.45    
0.5    0.45    0.5    0.45    0.5    
0.45    0.5    0.45    0.5    0.45    
0.5    0.45    0.45    0.5    0.4    
0.4    0.4    0.4    0.4    0.4    
0.4    0.4    0.4    0.4    0.4    
0.35    0.35    0.35    0.35    0.35    
0.35    0.35    0.35    0.35    0.35    
0.35    0.3    0.3    0.3    0.3    
0.3    0.3    0.3    0.3    0.3    
0.3    0.3    0.25    0.25    0.25    
0.25    0.25    0.25    0.25    0.25    
0.25    0.25    0.25    0.5    0.45    
0.5    0.45    0.5    0.45    0.5    
0.45    0.5    0.45    0.5    0.45    
0.5    0.45    0.5    0.45    0.5    
0.45    0.5    0.45    0.45    0.5    
0.4    0.4    0.4    0.4    0.4    
0.4    0.4    0.4    0.4    0.4    
0.4    0.35    0.35    0.35    0.35    
0.35    0.35    0.35    0.35    0.35    
0.35    0.35    0.3    0.3    0.3    
0.3    0.3    0.3    0.3    0.3    
0.3    0.3    0.3    0.25    0.25    
0.25    0.25    0.25    0.25    0.25    
0.25    0.25    0.25    0.25    0.5    
0.45    0.5    0.45    0.5    0.45    
0.5    0.45    0.5    0.45    0.5    
0.45    0.5    0.45    0.5    0.45    
0.5    0.45    0.5    0.45    0.45    
0.5    0.4    0.4    0.4    0.4    
0.4    0.4    0.4    0.4    0.4    
0.4    0.4    0.35    0.35    0.35    
0.35    0.35    0.35    0.35    0.35    
0.35    0.35    0.35    0.3    0.3    
0.3    0.3    0.3    0.3    0.3    
0.3    0.3    0.3    0.3    0.25    
0.25    0.25    0.25    0.25    0.25    
0.25    0.25    0.25    0.25    0.25    
0.5    0.45    0.5    0.45    0.5    
0.45    0.5    0.45    0.5    0.45    
0.5    0.45    0.5    0.45    0.5    
0.45    0.5    0.45    0.5    0.45    
0.45    0.4    0.4    0.4    0.4    
0.4    0.4    0.4    0.4    0.4    
0.4    0.4    0.35    0.35    0.35    
0.35    0.35    0.35    0.35    0.35    
0.35    0.35    0.35    0.3    0.3    
0.3    0.3    0.3    0.3    0.3    
0.3    0.3    0.3    0.3    0.25    
0.25    0.25    0.25    0.25    0.25    
0.25    0.25    0.25    0.25    0.25    
0.5    
394.178530276    395.520293698    386.754310467    396.32664764    392.352248725    
382.827557082    395.195111397    389.795814573    377.519346507    393.630953076    
386.08247107    370.168329279    391.396881183    380.403324135    359.682366728    
388.067507197    371.020983652    344.170959893    382.814113079    353.510574248    
320.190450468    373.827482749    314.140969498    281.156257815    356.502874732    
201.776918819    214.178638804    316.755400954    95.8716656659    202.97998464    
378.537258311    389.140847679    372.291298489    385.831128179    363.944735213    
381.288542481    352.578831672    374.872549694    336.769756594    365.48859881    
314.277672215    351.177774344    281.579664035    328.272864188    233.313150874    
289.658533804    162.194263393    221.460015183    61.7224036029    99.1153697012    
371.144881067    382.410971241    362.944907762    377.151349639    352.137111744    
370.01819983    337.696478871    360.116585448    318.13322102    346.003692301    
291.30376026    325.309785339    254.241987394    294.137863042    203.233377359    
246.299342769    134.723720833    173.080675826    48.1989880698    66.4447791353    
364.754694383    376.36421936    354.994942868    369.4668746    342.310145664    
360.244513546    325.670055376    347.689583627    303.660057346    330.266859659    
274.389938294    305.637747765    235.49510228    270.332535786    184.435940673    
219.597766125    119.48218358    148.18862074    41.8067834048    53.9251650203    
371.144881001    362.944907704    352.137111687    337.696478821    318.133220984    
291.303760236    254.241987371    203.233377341    134.723720818    48.1989880651    
397.263636798    396.398520609    395.183887749    393.411343746    390.690486246    
386.222703132    378.181543598    361.768131374    322.203962623    206.192187645    
391.912396978    389.383360829    385.859077629    380.776360989    373.127702613    
361.010324769    340.645080732    304.259848145    235.971472013    107.051143286    
386.904859627    382.889625536    377.363472671    369.536655585    358.070567966    
340.623962389    313.032986148    268.008066952    193.897033738    77.2698397972    
382.410971225    377.151349626    370.018199821    360.116585443    346.003692298    
325.30978534    294.137863042    246.299342768    173.080675825    66.4447791348    
378.537258234    372.291298427    363.944735161    352.578831629    336.769756568    
314.277672197    281.579664018    233.313150857    162.194263381    61.7224035985    
398.309255302    397.76364749    396.987319182    395.831790053    394.004147037    
390.862454232    384.807407197    371.228690516    334.740546379    217.302410609    
395.003638679    393.409416061    391.158841058    387.850836673    382.729876896    
374.264725408    359.112917544    329.507803995    266.956829104    130.809133842    
391.912396973    389.383360827    385.859077629    380.77636099    373.127702615    
361.010324772    340.645080733    304.259848145    235.971472014    107.051143286    
389.14084766    385.831128168    381.288542477    374.872549693    365.488598812    
351.177774346    328.272864189    289.658533805    221.460015183    99.115369701    
386.754310409    382.827557039    377.519346471    370.168329252    359.682366712    
344.170959883    320.190450458    281.156257805    214.178638797    95.8716656634    
399.427807332    399.241021279    398.973067922    398.568883732    397.914421832    
396.738196848    394.266244489    387.776944665    365.491931803    266.677417002    
398.3092553    397.763647489    396.987319181    395.831790052    394.004147037    
390.862454232    384.807407197    371.228690516    334.740546379    217.302410609    
397.263636795    396.398520607    395.183887748    393.411343746    390.690486247    
386.222703133    378.181543598    361.768131374    322.203962624    206.192187645    
396.326647631    395.195111391    393.630953073    391.396881182    388.067507198    
382.814113079    373.82748275    356.502874733    316.755400954    202.97998464    
395.520293675    394.178530257    392.352248709    389.795814561    386.082471063    
380.403324131    371.020983648    353.510574245    314.140969496    201.776918818    

0.075    0.025    0.025    0.025    0.125    
0.075    0.075    0.175    0.125    0.125    
0.225    0.175    0.175    0.275    0.225    
0.225    0.325    0.275    0.275    0.375    
0.325    0.325    0.425    0.375    0.375    
0.475    0.425    0.425    0.475    0.475    
0.025    0.025    0.075    0.075    0.125    
0.125    0.175    0.175    0.225    0.225    
0.275    0.275    0.325    0.325    0.375    
0.375    0.425    0.425    0.475    0.475    
0.025    0.025    0.075    0.075    0.125    
0.125    0.175    0.175    0.225    0.225    
0.275    0.275    0.325    0.325    0.375    
0.375    0.425    0.425    0.475    0.475    
0.025    0.025    0.075    0.075    0.125    
0.125    0.175    0.175    0.225    0.225    
0.275    0.275    0.325    0.325    0.375    
0.375    0.425    0.425    0.475    0.475    
0.025    0.075    0.125    0.175    0.225    
0.275    0.325    0.375    0.425    0.475    
0.025    0.075    0.125    0.175    0.225    
0.275    0.325    0.375    0.425    0.475    
0.025    0.075    0.125    0.175    0.225    
0.275    0.325    0.375    0.425    0.475    
0.025    0.075    0.125    0.175    0.225    
0.275    0.325    0.375    0.425    0.475    
0.025    0.075    0.125    0.175    0.225    
0.275    0.325    0.375    0.425    0.475    
0.025    0.075    0.125    0.175    0.225    
0.275    0.325    0.375    0.425    0.475    
0.025    0.075    0.125    0.175    0.225    
0.275    0.325    0.375    0.425    0.475    
0.025    0.075    0.125    0.175    0.225    
0.275    0.325    0.375    0.425    0.475    
0.025    0.075    0.125    0.175    0.225    
0.275    0.325    0.375    0.425    0.475    
0.025    0.075    0.125    0.175    0.225    
0.275    0.325    0.375    0.425    0.475    
0.025    0.075    0.125    0.175    0.225    
0.275    0.325    0.375    0.425    0.475    
0.025    0.075    0.125    0.175    0.225    
0.275    0.325    0.375    0.425    0.475    
0.025    0.075    0.125    0.175    0.225    
0.275    0.325    0.375    0.425    0.475    
0.025    0.075    0.125    0.175    0.225    
0.275    0.325    0.375    0.425    0.475    
0.025    0.075    0.125    0.175    0.225    
0.275    0.325    0.375    0.425    0.475    
0.025    0.075    0.125    0.175    0.225    
0.275    0.325    0.375    0.425    0.475    

69     70     2     3     71     72     5     6     
3     2     70     69     4     1     68     67     
70     68     1     2     90     89     23     24     
68     70     69     67     134     136     135     133     
71     72     5     6     73     74     7     8     
72     70     2     5     91     90     24     25     
70     72     71     69     136     138     137     135     
73     74     7     8     75     76     9     10     
74     72     5     7     92     91     25     26     
72     74     73     71     138     140     139     137     
75     76     9     10     77     78     11     12     
76     74     7     9     93     92     26     27     
74     76     75     73     140     142     141     139     
77     78     11     12     79     80     13     14     
78     76     9     11     94     93     27     28     
76     78     77     75     142     144     143     141     
79     80     13     14     81     82     15     16     
80     78     11     13     95     94     28     29     
78     80     79     77     144     146     145     143     
81     82     15     16     83     84     17     18     
82     80     13     15     96     95     29     30     
80     82     81     79     146     148     147     145     
83     84     17     18     85     86     19     20     
84     82     15     17     97     96     30     31     
82     84     83     81     148     150     149     147     
85     86     19     20     88     87     21     22     
86     84     17     19     98     97     31     32     
84     86     85     83     150     152     151     149     
87     86     19     21     99     98     32     33     
86     87     88     85     152     153     154     151     
90     89     23     24     101     100     34     35     
89     90     70     68     155     156     136     134     
91     90     24     25     102     101     35     36     
90     91     72     70     156     157     138     136     
92     91     25     26     103     102     36     37     
91     92     74     72     157     158     140     138     
93     92     26     27     104     103     37     38     
92     93     76     74     158     159     142     140     
94     93     27     28     105     104     38     39     
93     94     78     76     159     160     144     142     
95     94     28     29     106     105     39     40     
94     95     80     78     160     161     146     144     
96     95     29     30     107     106     40     41     
95     96     82     80     161     162     148     146     
97     96     30     31     108     107     41     42     
96     97     84     82     162     163     150     148     
98     97     31     32     109     108     42     43     
97     98     86     84     163     164     152     150     
99     98     32     33     110     109     43     44     
98     99     87     86     164     165     153     152     
101     100     34     35     112     111     45     46     
100     101     90     89     166     167     156     155     
102     101     35     36     113     112     46     47     
101     102     91     90     167     168     157     156     
103     102     36     37     114     113     47     48     
102     103     92     91     168     169     158     157     
104     103     37     38     115     114     48     49     
103     104     93     92     169     170     159     158     
105     104     38     39     116     115     49     50     
104     105     94     93     170     171     160     159     
106     105     39     40     117     116     50     51     
105     106     95     94     171     172     161     160     
107     106     40     41     118     117     51     52     
106     107     96     95     172     173     162     161     
108     107     41     42     119     118     52     53     
107     108     97     96     173     174     163     162     
109     108     42     43     120     119     53     54     
108     109     98     97     174     175     164     163     
110     109     43     44     121     120     54     55     
109     110     99     98     175     176     165     164     
112     111     45     46     123     122     56     57     
111     112     101     100     177     178     167     166     
113     112     46     47     124     123     57     58     
112     113     102     101     178     179     168     167     
114     113     47     48     125     124     58     59     
113     114     103     102     179     180     169     168     
115     114     48     49     126     125     59     60     
114     115     104     103     180     181     170     169     
116     115     49     50     127     126     60     61     
115     116     105     104     181     182     171     170     
117     116     50     51     128     127     61     62     
116     117     106     105     182     183     172     171     
118     117     51     52     129     128     62     63     
117     118     107     106     183     184     173     172     
119     118     52     53     130     129     63     64     
118     119     108     107     184     185     174     173     
120     119     53     54     131     130     64     65     
119     120     109     108     185     186     175     174     
121     120     54     55     132     131     65     66     
120     121     110     109     186     187     176     175     
122     123     112     111     188     189     178     177     
123     124     113     112     189     190     179     178     
124     125     114     113     190     191     180     179     
125     126     115     114     191     192     181     180     
126     127     116     115     192     193     182     181     
127     128     117     116     193     194     183     182     
128     129     118     117     194     195     184     183     
129     130     119     118     195     196     185     184     
130     131     120     119     196     197     186     185     
131     132     121     120     197     198     187     186     
134     136     135     133     200     202     201     199     
136     138     137     135     202     204     203     201     
138     140     139     137     204     206     205     203     
140     142     141     139     206     208     207     205     
142     144     143     141     208     210     209     207     
144     146     145     143     210     212     211     209     
146     148     147     145     212     214     213     211     
148     150     149     147     214     216     215     213     
150     152     151     149     216     218     217     215     
152     153     154     151     218     219     220     217     
155     156     136     134     221     222     202     200     
156     157     138     136     222     223     204     202     
157     158     140     138     223     224     206     204     
158     159     142     140     224     225     208     206     
159     160     144     142     225     226     210     208     
160     161     146     144     226     227     212     210     
161     162     148     146     227     228     214     212     
162     163     150     148     228     229     216     214     
163     164     152     150     229     230     218     216     
164     165     153     152     230     231     219     218     
166     167     156     155     232     233     222     221     
167     168     157     156     233     234     223     222     
168     169     158     157     234     235     224     223     
169     170     159     158     235     236     225     224     
170     171     160     159     236     237     226     225     
171     172     161     160     237     238     227     226     
172     173     162     161     238     239     228     227     
173     174     163     162     239     240     229     228     
174     175     164     163     240     241     230     229     
175     176     165     164     241     242     231     230     
177     178     167     166     243     244     233     232     
178     179     168     167     244     245     234     233     
179     180     169     168     245     246     235     234     
180     181     170     169     246     247     236     235     
181     182     171     170     247     248     237     236     
182     183     172     171     248     249     238     237     
183     184     173     172     249     250     239     238     
184     185     174     173     250     251     240     239     
185     186     175     174     251     252     241     240     
186     187     176     175     252     253     242     241     
188     189     178     177     254     255     244     243     
189     190     179     178     255     256     245     244     
190     191     180     179     256     257     246     245     
191     192     181     180     257     258     247     246     
192     193     182     181     258     259     248     247     
193     194     183     182     259     260     249     248     
194     195     184     183     260     261     250     249     
195     196     185     184     261     262     251     250     
196     197     186     185     262     263     252     251     
197     198     187     186     263     264     253     252     
200     202     201     199     266     268     267     265     
202     204     203     201     268     270     269     267     
204     206     205     203     270     272     271     269     
206     208     207     205     272     274     273     271     
208     210     209     207     274     276     275     273     
210     212     211     209     276     278     277     275     
212     214     213     211     278     280     279     277     
214     216     215     213     280     282     281     279     
216     218     217     215     282     284     283     281     
218     219     220     217     284     285     286     283     
221     222     202     200     287     288     268     266     
222     223     204     202     288     289     270     268     
223     224     206     204     289     290     272     270     
224     225     208     206     290     291     274     272     
225     226     210     208     291     292     276     274     
226     227     212     210     292     293     278     276     
227     228     214     212     293     294     280     278     
228     229     216     214     294     295     282     280     
229     230     218     216     295     296     284     282     
230     231     219     218     296     297     285     284     
232     233     222     221     298     299     288     287     
233     234     223     222     299     300     289     288     
234     235     224     223     300     301     290     289     
235     236     225     224     301     302     291     290     
236     237     226     225     302     303     292     291     
237     238     227     226     303     304     293     292     
238     239     228     227     304     305     294     293     
239     240     229     228     305     306     295     294     
240     241     230     229     306     307     296     295     
241     242     231     230     307     308     297     296     
243     244     233     232     309     310     299     298     
244     245     234     233     310     311     300     299     
245     246     235     234     311     312     301     300     
246     247     236     235     312     313     302     301     
247     248     237     236     313     314     303     302     
248     249     238     237     314     315     304     303     
249     250     239     238     315     316     305     304     
250     251     240     239     316     317     306     305     
251     252     241     240     317     318     307     306     
252     253     242     241     318     319     308     307     
254     255     244     243     320     321     310     309     
255     256     245     244     321     322     311     310     
256     257     246     245     322     323     312     311     
257     258     247     246     323     324     313     312     
258     259     248     247     324     325     314     313     
259     260     249     248     325     326     315     314     
260     261     250     249     326     327     316     315     
261     262     251     250     327     328     317     316     
262     263     252     251     328     329     318     317     
263     264     253     252     329     330     319     318     
266     268     267     265     332     334     333     331     
268     270     269     267     334     336     335     333     
270     272     271     269     336     338     337     335     
272     274     273     271     338     340     339     337     
274     276     275     273     340     342     341     339     
276     278     277     275     342     344     343     341     
278     280     279     277     344     346     345     343     
280     282     281     279     346     348     347     345     
282     284     283     281     348     350     349     347     
284     285     286     283     350     351     396     349     