Title = " tecplot file for 2D Cavity problem " 
variables = "x", "y", "z", "velX", "cellCentroidY" 
Zone T = "nmesh0" N = 396 E = 250 DATAPACKING = BLOCK, VARLOCATION = ([4-5]=CELLCENTERED), ZONETYPE=FEBRICK
0.45    0.45    0.5    0.5    0.45    
0.5    0.45    0.5    0.45    0.5    
0.45    0.5    0.45    0.5    0.45    
0.5    0.45    0.5    0.45    0.5    
0.45    0.5    0.45    0.5    0.45    
0.5    0.45    0.5    0.45    0.5    
0.45    0.5    0.45    0.5    0.45    
0.5    0.45    0.5    0.45    0.5    
0.45    0.5    0.45    0.5    0.45    
0.5    0.45    0.5    0.45    0.5    
0.45    0.5    0.45    0.5    0.45    
0.5    0.45    0.5    0.45    0.5    
0.45    0.5    0.45    0.5    0.45    
0.5    0.45    0.5    0.45    0.5    
0.45    0.5    0.45    0.5    0.45    
0.5    0.45    0.5    0.45    0.5    
0.45    0.5    0.45    0.5    0.45    
0.5    0.45    0.5    0.45    0.5    
0.45    0.5    0.45    0.5    0.45    
0.5    0.45    0.5    0.45    0.5    
0.45    0.5    0.45    0.5    0.45    
0.5    0.45    0.5    0.45    0.5    
0.45    0.5    0.45    0.5    0.45    
0.5    0.45    0.5    0.45    0.5    
0.45    0.5    0.45    0.5    0.45    
0.5    0.45    0.5    0.45    0.5    
0.45    0.5    0.4    0.4    0.4    
0.4    0.4    0.4    0.4    0.4    
0.4    0.4    0.4    0.4    0.4    
0.4    0.4    0.4    0.4    0.4    
0.4    0.4    0.4    0.4    0.4    
0.4    0.4    0.4    0.4    0.4    
0.4    0.4    0.4    0.4    0.4    
0.4    0.4    0.4    0.4    0.4    
0.4    0.4    0.4    0.4    0.4    
0.4    0.4    0.4    0.4    0.4    
0.4    0.4    0.4    0.4    0.4    
0.4    0.4    0.4    0.4    0.4    
0.4    0.4    0.4    0.4    0.4    
0.4    0.4    0.4    0.35    0.35    
0.35    0.35    0.35    0.35    0.35    
0.35    0.35    0.35    0.35    0.35    
0.35    0.35    0.35    0.35    0.35    
0.35    0.35    0.35    0.35    0.35    
0.35    0.35    0.35    0.35    0.35    
0.35    0.35    0.35    0.35    0.35    
0.35    0.35    0.35    0.35    0.35    
0.35    0.35    0.35    0.35    0.35    
0.35    0.35    0.35    0.35    0.35    
0.35    0.35    0.35    0.35    0.35    
0.35    0.35    0.35    0.35    0.35    
0.35    0.35    0.35    0.35    0.35    
0.35    0.35    0.35    0.35    0.3    
0.3    0.3    0.3    0.3    0.3    
0.3    0.3    0.3    0.3    0.3    
0.3    0.3    0.3    0.3    0.3    
0.3    0.3    0.3    0.3    0.3    
0.3    0.3    0.3    0.3    0.3    
0.3    0.3    0.3    0.3    0.3    
0.3    0.3    0.3    0.3    0.3    
0.3    0.3    0.3    0.3    0.3    
0.3    0.3    0.3    0.3    0.3    
0.3    0.3    0.3    0.3    0.3    
0.3    0.3    0.3    0.3    0.3    
0.3    0.3    0.3    0.3    0.3    
0.3    0.3    0.3    0.3    0.3    
0.25    0.25    0.25    0.25    0.25    
0.25    0.25    0.25    0.25    0.25    
0.25    0.25    0.25    0.25    0.25    
0.25    0.25    0.25    0.25    0.25    
0.25    0.25    0.25    0.25    0.25    
0.25    0.25    0.25    0.25    0.25    
0.25    0.25    0.25    0.25    0.25    
0.25    0.25    0.25    0.25    0.25    
0.25    0.25    0.25    0.25    0.25    
0.25    0.25    0.25    0.25    0.25    
0.25    0.25    0.25    0.25    0.25    
0.25    0.25    0.25    0.25    0.25    
0.25    0.25    0.25    0.25    0.25    
0.25    
-0.2    -0.25    -0.25    -0.2    -0.15    
-0.15    -0.1    -0.1    -0.05    -0.05    
0.0    0.0    -0.25    -0.25    -0.2    
-0.2    -0.15    -0.15    -0.1    -0.1    
-0.05    -0.05    0.0    0.0    -0.25    
-0.25    -0.2    -0.2    -0.15    -0.15    
-0.1    -0.1    -0.05    -0.05    0.0    
0.0    -0.25    -0.25    -0.2    -0.2    
-0.15    -0.15    -0.1    -0.1    -0.05    
-0.05    0.0    0.0    -0.25    -0.25    
-0.2    -0.2    -0.15    -0.15    -0.1    
-0.1    -0.05    -0.05    -2.4980018054e-17    -2.7755575616e-17    
-0.25    -0.25    -0.2    -0.2    -0.15    
-0.15    -0.1    -0.1    -0.05    -0.05    
0.0    0.0    -0.25    -0.25    -0.2    
-0.2    -0.15    -0.15    -0.1    -0.1    
-0.05    -0.05    0.0    0.0    -0.25    
-0.25    -0.2    -0.2    -0.15    -0.15    
-0.1    -0.1    -0.05    -0.05    0.0    
0.0    -0.25    -0.25    -0.2    -0.2    
-0.15    -0.15    -0.1    -0.1    -0.05    
-0.05    0.0    0.0    -0.25    -0.25    
-0.2    -0.2    -0.15    -0.15    -0.1    
-0.1    -0.05    -0.05    0.0    0.0    
-0.25    -0.25    -0.2    -0.2    -0.15    
-0.15    -0.1    -0.1    -0.05    -0.05    
-1.0408340856e-17    0.0    -0.2    -0.25    -0.15    
-0.1    -0.05    0.0    -0.25    -0.2    
-0.15    -0.1    -0.05    0.0    -0.25    
-0.2    -0.15    -0.1    -0.05    0.0    
-0.25    -0.2    -0.15    -0.1    -0.05    
0.0    -0.25    -0.2    -0.15    -0.1    
-0.05    -2.2204460493e-17    -0.25    -0.2    -0.15    
-0.1    -0.05    0.0    -0.25    -0.2    
-0.15    -0.1    -0.05    0.0    -0.25    
-0.2    -0.15    -0.1    -0.05    0.0    
-0.25    -0.2    -0.15    -0.1    -0.05    
0.0    -0.25    -0.2    -0.15    -0.1    
-0.05    0.0    -0.25    -0.2    -0.15    
-0.1    -0.05    -6.9388939039e-18    -0.2    -0.25    
-0.15    -0.1    -0.05    0.0    -0.25    
-0.2    -0.15    -0.1    -0.05    0.0    
-0.25    -0.2    -0.15    -0.1    -0.05    
0.0    -0.25    -0.2    -0.15    -0.1    
-0.05    0.0    -0.25    -0.2    -0.15    
-0.1    -0.05    -1.9428902931e-17    -0.25    -0.2    
-0.15    -0.1    -0.05    0.0    -0.25    
-0.2    -0.15    -0.1    -0.05    0.0    
-0.25    -0.2    -0.15    -0.1    -0.05    
0.0    -0.25    -0.2    -0.15    -0.1    
-0.05    0.0    -0.25    -0.2    -0.15    
-0.1    -0.05    0.0    -0.25    -0.2    
-0.15    -0.1    -0.05    -1.3877787808e-17    -0.2    
-0.25    -0.15    -0.1    -0.05    0.0    
-0.25    -0.2    -0.15    -0.1    -0.05    
0.0    -0.25    -0.2    -0.15    -0.1    
-0.05    0.0    -0.25    -0.2    -0.15    
-0.1    -0.05    0.0    -0.25    -0.2    
-0.15    -0.1    -0.05    -1.6653345369e-17    -0.25    
-0.2    -0.15    -0.1    -0.05    0.0    
-0.25    -0.2    -0.15    -0.1    -0.05    
0.0    -0.25    -0.2    -0.15    -0.1    
-0.05    0.0    -0.25    -0.2    -0.15    
-0.1    -0.05    0.0    -0.25    -0.2    
-0.15    -0.1    -0.05    0.0    -0.25    
-0.2    -0.15    -0.1    -0.05    -6.9388939039e-18    
-0.2    -0.25    -0.15    -0.1    -0.05    
0.0    -0.25    -0.2    -0.15    -0.1    
-0.05    0.0    -0.25    -0.2    -0.15    
-0.1    -0.05    0.0    -0.25    -0.2    
-0.15    -0.1    -0.05    0.0    -0.25    
-0.2    -0.15    -0.1    -0.05    -1.3877787808e-17    
-0.25    -0.2    -0.15    -0.1    -0.05    
0.0    -0.25    -0.2    -0.15    -0.1    
-0.05    0.0    -0.25    -0.2    -0.15    
-0.1    -0.05    0.0    -0.25    -0.2    
-0.15    -0.1    -0.05    0.0    -0.25    
-0.2    -0.15    -0.1    -0.05    0.0    
-0.25    -0.2    -0.15    -0.1    -0.05    
6.9388939039e-18    
0.0    0.0    0.0    0.0    0.0    
0.0    0.0    0.0    0.0    0.0    
0.0    0.0    -0.05    -0.05    -0.05    
-0.05    -0.05    -0.05    -0.05    -0.05    
-0.05    -0.05    -0.05    -0.05    -0.1    
-0.1    -0.1    -0.1    -0.1    -0.1    
-0.1    -0.1    -0.1    -0.1    -0.1    
-0.1    -0.15    -0.15    -0.15    -0.15    
-0.15    -0.15    -0.15    -0.15    -0.15    
-0.15    -0.15    -0.15    -0.2    -0.2    
-0.2    -0.2    -0.2    -0.2    -0.2    
-0.2    -0.2    -0.2    -0.2    -0.2    
-0.25    -0.25    -0.25    -0.25    -0.25    
-0.25    -0.25    -0.25    -0.25    -0.25    
-0.25    -0.25    -0.3    -0.3    -0.3    
-0.3    -0.3    -0.3    -0.3    -0.3    
-0.3    -0.3    -0.3    -0.3    -0.35    
-0.35    -0.35    -0.35    -0.35    -0.35    
-0.35    -0.35    -0.35    -0.35    -0.35    
-0.35    -0.4    -0.4    -0.4    -0.4    
-0.4    -0.4    -0.4    -0.4    -0.4    
-0.4    -0.4    -0.4    -0.45    -0.45    
-0.45    -0.45    -0.45    -0.45    -0.45    
-0.45    -0.45    -0.45    -0.45    -0.45    
-0.5    -0.5    -0.5    -0.5    -0.5    
-0.5    -0.5    -0.5    -0.5    -0.5    
-0.5    -0.5    0.0    0.0    0.0    
0.0    0.0    0.0    -0.05    -0.05    
-0.05    -0.05    -0.05    -0.05    -0.1    
-0.1    -0.1    -0.1    -0.1    -0.1    
-0.15    -0.15    -0.15    -0.15    -0.15    
-0.15    -0.2    -0.2    -0.2    -0.2    
-0.2    -0.2    -0.25    -0.25    -0.25    
-0.25    -0.25    -0.25    -0.3    -0.3    
-0.3    -0.3    -0.3    -0.3    -0.35    
-0.35    -0.35    -0.35    -0.35    -0.35    
-0.4    -0.4    -0.4    -0.4    -0.4    
-0.4    -0.45    -0.45    -0.45    -0.45    
-0.45    -0.45    -0.5    -0.5    -0.5    
-0.5    -0.5    -0.5    0.0    0.0    
0.0    0.0    0.0    0.0    -0.05    
-0.05    -0.05    -0.05    -0.05    -0.05    
-0.1    -0.1    -0.1    -0.1    -0.1    
-0.1    -0.15    -0.15    -0.15    -0.15    
-0.15    -0.15    -0.2    -0.2    -0.2    
-0.2    -0.2    -0.2    -0.25    -0.25    
-0.25    -0.25    -0.25    -0.25    -0.3    
-0.3    -0.3    -0.3    -0.3    -0.3    
-0.35    -0.35    -0.35    -0.35    -0.35    
-0.35    -0.4    -0.4    -0.4    -0.4    
-0.4    -0.4    -0.45    -0.45    -0.45    
-0.45    -0.45    -0.45    -0.5    -0.5    
-0.5    -0.5    -0.5    -0.5    0.0    
0.0    0.0    0.0    0.0    0.0    
-0.05    -0.05    -0.05    -0.05    -0.05    
-0.05    -0.1    -0.1    -0.1    -0.1    
-0.1    -0.1    -0.15    -0.15    -0.15    
-0.15    -0.15    -0.15    -0.2    -0.2    
-0.2    -0.2    -0.2    -0.2    -0.25    
-0.25    -0.25    -0.25    -0.25    -0.25    
-0.3    -0.3    -0.3    -0.3    -0.3    
-0.3    -0.35    -0.35    -0.35    -0.35    
-0.35    -0.35    -0.4    -0.4    -0.4    
-0.4    -0.4    -0.4    -0.45    -0.45    
-0.45    -0.45    -0.45    -0.45    -0.5    
-0.5    -0.5    -0.5    -0.5    -0.5    
0.0    0.0    2.4651903288e-32    0.0    0.0    
0.0    -0.05    -0.05    -0.05    -0.05    
-0.05    -0.05    -0.1    -0.1    -0.1    
-0.1    -0.1    -0.1    -0.15    -0.15    
-0.15    -0.15    -0.15    -0.15    -0.2    
-0.2    -0.2    -0.2    -0.2    -0.2    
-0.25    -0.25    -0.25    -0.25    -0.25    
-0.25    -0.3    -0.3    -0.3    -0.3    
-0.3    -0.3    -0.35    -0.35    -0.35    
-0.35    -0.35    -0.35    -0.4    -0.4    
-0.4    -0.4    -0.4    -0.4    -0.45    
-0.45    -0.45    -0.45    -0.45    -0.45    
-0.5    -0.5    -0.5    -0.5    -0.5    
-0.5    
397.556350003    398.114157987    398.157784243    394.397136028    396.869230503    
397.611904583    392.742806948    396.013000339    396.938750703    390.707281974    
394.935343327    396.098775999    388.174652207    395.039773805    384.993713151    
398.244541881    394.526788608    397.722581094    392.907866036    397.077577549    
390.91376628    396.270594299    388.429312846    395.249798567    385.303602581    
398.373345093    394.784615369    397.887358996    393.236684643    397.285041821    
391.326074918    396.528627406    388.939380571    395.567234331    385.926753093    
398.542341743    395.167375282    398.10434062    393.726204345    397.559557108    
391.942171685    396.872243686    389.705277701    395.993513328    386.868394723    
398.748692656    395.669545932    398.370373842    394.370752653    397.89799375    
392.757279879    397.299001255    390.725006703    396.528125528    388.132547766    
398.988356643    396.282671273    398.680661353    395.160928516    398.294990006    
393.762034039    397.803465613    391.991180207    397.166643926    389.717426501    
399.255945245    396.994727389    399.028458847    396.082450128    398.742359007    
394.940450318    398.376083643    393.48754046    397.898637069    391.609631634    
399.544713073    397.789695459    399.404978531    397.115267793    399.228795841    
396.268184711    399.002467086    395.185656724    398.706056818    393.778038296    
399.846733062    398.647536536    399.79959692    398.233285035    399.740085234    
397.711681026    399.663493273    397.042840022    399.56292678    396.169111488    
399.544713073    399.40497853    399.228795841    399.002467086    398.706056818    
390.840799527    388.145400735    384.835953967    380.729952771    375.592640525    
391.052865057    388.41524519    385.173311244    381.145699484    376.098073234    
391.474554325    388.952766127    385.84686881    381.978270596    377.114189369    
392.100522678    389.752882835    386.853151468    383.228085144    378.649031981    
392.921681815    390.806216646    388.184157104    384.891510999    380.708465822    
393.924144445    392.097289171    389.824371585    386.956072308    383.288763457    
395.088201046    393.60266541    391.747502576    389.394858275    386.367292953    
396.387635719    395.289532586    393.913693395    392.161253215    389.892795891    
397.789695457    397.115267793    396.268184712    395.185656728    393.778038299    
399.255945243    399.028458847    398.742359008    398.376083644    397.898637069    
387.541881979    383.892198095    379.423823172    373.900817732    367.025300002    
387.830545109    384.259261996    379.882333777    374.465276262    367.710648464    
388.404503959    384.990360983    380.797638527    375.595400222    369.088016496    
389.256403214    386.078435764    382.164743243    377.291268124    371.167433851    
390.373769592    387.510536314    383.972412058    379.547278932    373.955615549    
391.737596568    389.265408446    386.19917432    382.345749337    377.446064914    
393.320977588    391.311016955    388.808976474    385.649488148    381.606737207    
395.088201036    393.602665401    391.747502572    389.394858274    386.367292945    
396.99472738    396.082450123    394.940450319    393.48754046    391.60963163    
398.988356638    398.68066135    398.294990005    397.803465612    397.166643924    
384.58346954    380.090622657    374.607812336    367.859736513    359.506082913    
384.94098988    380.544888885    375.174691504    368.556757933    360.351141346    
385.651797516    381.449559547    376.306124144    369.951931324    362.048859253    
386.706668153    382.795688025    377.995553517    372.044667348    364.610388968    
388.090007437    384.566975401    380.228582429    374.827117534    368.042308058    
389.778128554    386.736837357    382.978128026    378.276417433    372.334642934    
391.737596542    389.265408418    386.199174293    382.345749319    377.446064892    
393.924144412    392.097289142    389.82437156    386.956072284    383.28876343    
396.282671248    395.160928497    393.762034024    391.991180193    389.717426484    
398.748692645    398.370373833    397.897993742    397.299001247    396.528125518    

-0.175    -0.225    -0.225    -0.225    -0.125    
-0.175    -0.175    -0.075    -0.125    -0.125    
-0.025    -0.075    -0.075    -0.025    -0.025    
-0.225    -0.225    -0.175    -0.175    -0.125    
-0.125    -0.075    -0.075    -0.025    -0.025    
-0.225    -0.225    -0.175    -0.175    -0.125    
-0.125    -0.075    -0.075    -0.025    -0.025    
-0.225    -0.225    -0.175    -0.175    -0.125    
-0.125    -0.075    -0.075    -0.025    -0.025    
-0.225    -0.225    -0.175    -0.175    -0.125    
-0.125    -0.075    -0.075    -0.025    -0.025    
-0.225    -0.225    -0.175    -0.175    -0.125    
-0.125    -0.075    -0.075    -0.025    -0.025    
-0.225    -0.225    -0.175    -0.175    -0.125    
-0.125    -0.075    -0.075    -0.025    -0.025    
-0.225    -0.225    -0.175    -0.175    -0.125    
-0.125    -0.075    -0.075    -0.025    -0.025    
-0.225    -0.225    -0.175    -0.175    -0.125    
-0.125    -0.075    -0.075    -0.025    -0.025    
-0.225    -0.175    -0.125    -0.075    -0.025    
-0.225    -0.175    -0.125    -0.075    -0.025    
-0.225    -0.175    -0.125    -0.075    -0.025    
-0.225    -0.175    -0.125    -0.075    -0.025    
-0.225    -0.175    -0.125    -0.075    -0.025    
-0.225    -0.175    -0.125    -0.075    -0.025    
-0.225    -0.175    -0.125    -0.075    -0.025    
-0.225    -0.175    -0.125    -0.075    -0.025    
-0.225    -0.175    -0.125    -0.075    -0.025    
-0.225    -0.175    -0.125    -0.075    -0.025    
-0.225    -0.175    -0.125    -0.075    -0.025    
-0.225    -0.175    -0.125    -0.075    -0.025    
-0.225    -0.175    -0.125    -0.075    -0.025    
-0.225    -0.175    -0.125    -0.075    -0.025    
-0.225    -0.175    -0.125    -0.075    -0.025    
-0.225    -0.175    -0.125    -0.075    -0.025    
-0.225    -0.175    -0.125    -0.075    -0.025    
-0.225    -0.175    -0.125    -0.075    -0.025    
-0.225    -0.175    -0.125    -0.075    -0.025    
-0.225    -0.175    -0.125    -0.075    -0.025    
-0.225    -0.175    -0.125    -0.075    -0.025    
-0.225    -0.175    -0.125    -0.075    -0.025    
-0.225    -0.175    -0.125    -0.075    -0.025    
-0.225    -0.175    -0.125    -0.075    -0.025    
-0.225    -0.175    -0.125    -0.075    -0.025    
-0.225    -0.175    -0.125    -0.075    -0.025    
-0.225    -0.175    -0.125    -0.075    -0.025    
-0.225    -0.175    -0.125    -0.075    -0.025    
-0.225    -0.175    -0.125    -0.075    -0.025    
-0.225    -0.175    -0.125    -0.075    -0.025    
-0.225    -0.175    -0.125    -0.075    -0.025    

1     15     16     4     5     17     18     6     
4     16     15     1     3     14     13     2     
15     13     14     16     27     25     26     28     
13     15     1     2     139     140     133     134     
5     17     18     6     7     19     20     8     
17     15     16     18     29     27     28     30     
15     17     5     1     140     141     135     133     
7     19     20     8     9     21     22     10     
19     17     18     20     31     29     30     32     
17     19     7     5     141     142     136     135     
9     21     22     10     11     23     24     12     
21     19     20     22     33     31     32     34     
19     21     9     7     142     143     137     136     
23     21     22     24     35     33     34     36     
21     23     11     9     143     144     138     137     
27     25     26     28     39     37     38     40     
25     27     15     13     145     146     140     139     
29     27     28     30     41     39     40     42     
27     29     17     15     146     147     141     140     
31     29     30     32     43     41     42     44     
29     31     19     17     147     148     142     141     
33     31     32     34     45     43     44     46     
31     33     21     19     148     149     143     142     
35     33     34     36     47     45     46     48     
33     35     23     21     149     150     144     143     
39     37     38     40     51     49     50     52     
37     39     27     25     151     152     146     145     
41     39     40     42     53     51     52     54     
39     41     29     27     152     153     147     146     
43     41     42     44     55     53     54     56     
41     43     31     29     153     154     148     147     
45     43     44     46     57     55     56     58     
43     45     33     31     154     155     149     148     
47     45     46     48     59     57     58     60     
45     47     35     33     155     156     150     149     
51     49     50     52     63     61     62     64     
49     51     39     37     157     158     152     151     
53     51     52     54     65     63     64     66     
51     53     41     39     158     159     153     152     
55     53     54     56     67     65     66     68     
53     55     43     41     159     160     154     153     
57     55     56     58     69     67     68     70     
55     57     45     43     160     161     155     154     
59     57     58     60     71     69     70     72     
57     59     47     45     161     162     156     155     
63     61     62     64     75     73     74     76     
61     63     51     49     163     164     158     157     
65     63     64     66     77     75     76     78     
63     65     53     51     164     165     159     158     
67     65     66     68     79     77     78     80     
65     67     55     53     165     166     160     159     
69     67     68     70     81     79     80     82     
67     69     57     55     166     167     161     160     
71     69     70     72     83     81     82     84     
69     71     59     57     167     168     162     161     
75     73     74     76     87     85     86     88     
73     75     63     61     169     170     164     163     
77     75     76     78     89     87     88     90     
75     77     65     63     170     171     165     164     
79     77     78     80     91     89     90     92     
77     79     67     65     171     172     166     165     
81     79     80     82     93     91     92     94     
79     81     69     67     172     173     167     166     
83     81     82     84     95     93     94     96     
81     83     71     69     173     174     168     167     
87     85     86     88     99     97     98     100     
85     87     75     73     175     176     170     169     
89     87     88     90     101     99     100     102     
87     89     77     75     176     177     171     170     
91     89     90     92     103     101     102     104     
89     91     79     77     177     178     172     171     
93     91     92     94     105     103     104     106     
91     93     81     79     178     179     173     172     
95     93     94     96     107     105     106     108     
93     95     83     81     179     180     174     173     
99     97     98     100     111     109     110     112     
97     99     87     85     181     182     176     175     
101     99     100     102     113     111     112     114     
99     101     89     87     182     183     177     176     
103     101     102     104     115     113     114     116     
101     103     91     89     183     184     178     177     
105     103     104     106     117     115     116     118     
103     105     93     91     184     185     179     178     
107     105     106     108     119     117     118     120     
105     107     95     93     185     186     180     179     
111     109     110     112     123     121     122     124     
109     111     99     97     187     188     182     181     
113     111     112     114     125     123     124     126     
111     113     101     99     188     189     183     182     
115     113     114     116     127     125     126     128     
113     115     103     101     189     190     184     183     
117     115     116     118     129     127     128     130     
115     117     105     103     190     191     185     184     
119     117     118     120     131     129     130     132     
117     119     107     105     191     192     186     185     
121     123     111     109     193     194     188     187     
123     125     113     111     194     195     189     188     
125     127     115     113     195     196     190     189     
127     129     117     115     196     197     191     190     
129     131     119     117     197     198     192     191     
139     140     133     134     205     206     199     200     
140     141     135     133     206     207     201     199     
141     142     136     135     207     208     202     201     
142     143     137     136     208     209     203     202     
143     144     138     137     209     210     204     203     
145     146     140     139     211     212     206     205     
146     147     141     140     212     213     207     206     
147     148     142     141     213     214     208     207     
148     149     143     142     214     215     209     208     
149     150     144     143     215     216     210     209     
151     152     146     145     217     218     212     211     
152     153     147     146     218     219     213     212     
153     154     148     147     219     220     214     213     
154     155     149     148     220     221     215     214     
155     156     150     149     221     222     216     215     
157     158     152     151     223     224     218     217     
158     159     153     152     224     225     219     218     
159     160     154     153     225     226     220     219     
160     161     155     154     226     227     221     220     
161     162     156     155     227     228     222     221     
163     164     158     157     229     230     224     223     
164     165     159     158     230     231     225     224     
165     166     160     159     231     232     226     225     
166     167     161     160     232     233     227     226     
167     168     162     161     233     234     228     227     
169     170     164     163     235     236     230     229     
170     171     165     164     236     237     231     230     
171     172     166     165     237     238     232     231     
172     173     167     166     238     239     233     232     
173     174     168     167     239     240     234     233     
175     176     170     169     241     242     236     235     
176     177     171     170     242     243     237     236     
177     178     172     171     243     244     238     237     
178     179     173     172     244     245     239     238     
179     180     174     173     245     246     240     239     
181     182     176     175     247     248     242     241     
182     183     177     176     248     249     243     242     
183     184     178     177     249     250     244     243     
184     185     179     178     250     251     245     244     
185     186     180     179     251     252     246     245     
187     188     182     181     253     254     248     247     
188     189     183     182     254     255     249     248     
189     190     184     183     255     256     250     249     
190     191     185     184     256     257     251     250     
191     192     186     185     257     258     252     251     
193     194     188     187     259     260     254     253     
194     195     189     188     260     261     255     254     
195     196     190     189     261     262     256     255     
196     197     191     190     262     263     257     256     
197     198     192     191     263     264     258     257     
205     206     199     200     271     272     265     266     
206     207     201     199     272     273     267     265     
207     208     202     201     273     274     268     267     
208     209     203     202     274     275     269     268     
209     210     204     203     275     276     270     269     
211     212     206     205     277     278     272     271     
212     213     207     206     278     279     273     272     
213     214     208     207     279     280     274     273     
214     215     209     208     280     281     275     274     
215     216     210     209     281     282     276     275     
217     218     212     211     283     284     278     277     
218     219     213     212     284     285     279     278     
219     220     214     213     285     286     280     279     
220     221     215     214     286     287     281     280     
221     222     216     215     287     288     282     281     
223     224     218     217     289     290     284     283     
224     225     219     218     290     291     285     284     
225     226     220     219     291     292     286     285     
226     227     221     220     292     293     287     286     
227     228     222     221     293     294     288     287     
229     230     224     223     295     296     290     289     
230     231     225     224     296     297     291     290     
231     232     226     225     297     298     292     291     
232     233     227     226     298     299     293     292     
233     234     228     227     299     300     294     293     
235     236     230     229     301     302     296     295     
236     237     231     230     302     303     297     296     
237     238     232     231     303     304     298     297     
238     239     233     232     304     305     299     298     
239     240     234     233     305     306     300     299     
241     242     236     235     307     308     302     301     
242     243     237     236     308     309     303     302     
243     244     238     237     309     310     304     303     
244     245     239     238     310     311     305     304     
245     246     240     239     311     312     306     305     
247     248     242     241     313     314     308     307     
248     249     243     242     314     315     309     308     
249     250     244     243     315     316     310     309     
250     251     245     244     316     317     311     310     
251     252     246     245     317     318     312     311     
253     254     248     247     319     320     314     313     
254     255     249     248     320     321     315     314     
255     256     250     249     321     322     316     315     
256     257     251     250     322     323     317     316     
257     258     252     251     323     324     318     317     
259     260     254     253     325     326     320     319     
260     261     255     254     326     327     321     320     
261     262     256     255     327     328     322     321     
262     263     257     256     328     329     323     322     
263     264     258     257     329     330     324     323     
271     272     265     266     337     338     331     332     
272     273     267     265     338     339     333     331     
273     274     268     267     339     340     334     333     
274     275     269     268     340     341     335     334     
275     276     270     269     341     342     336     335     
277     278     272     271     343     344     338     337     
278     279     273     272     344     345     339     338     