Title = " tecplot file for 2D Cavity problem " 
variables = "x", "y", "z", "velX", "cellCentroidY" 
Zone T = "nmesh0" N = 402 E = 250 DATAPACKING = BLOCK, VARLOCATION = ([4-5]=CELLCENTERED), ZONETYPE=FEBRICK
-0.25    -0.25    -0.25    -0.25    -0.25    
-0.25    -0.25    -0.25    -0.25    -0.25    
-0.25    -0.25    -0.25    -0.25    -0.25    
-0.25    -0.25    -0.25    -0.25    -0.25    
-0.25    -0.25    -0.25    -0.25    -0.25    
-0.25    -0.25    -0.25    -0.25    -0.25    
-0.25    -0.25    -0.25    -0.25    -0.25    
-0.25    -0.25    -0.25    -0.25    -0.25    
-0.25    -0.25    -0.25    -0.25    -0.25    
-0.25    -0.25    -0.25    -0.25    -0.25    
-0.25    -0.25    -0.25    -0.25    -0.25    
-0.25    -0.25    -0.25    -0.25    -0.25    
-0.25    -0.25    -0.25    -0.25    -0.25    
-0.25    -0.25    -0.3    -0.3    -0.3    
-0.3    -0.3    -0.3    -0.3    -0.3    
-0.3    -0.3    -0.3    -0.3    -0.3    
-0.3    -0.3    -0.3    -0.3    -0.3    
-0.3    -0.3    -0.3    -0.3    -0.3    
-0.3    -0.3    -0.3    -0.3    -0.3    
-0.3    -0.3    -0.3    -0.3    -0.3    
-0.3    -0.3    -0.3    -0.3    -0.3    
-0.3    -0.3    -0.3    -0.3    -0.3    
-0.3    -0.3    -0.3    -0.3    -0.3    
-0.3    -0.3    -0.3    -0.3    -0.3    
-0.3    -0.3    -0.3    -0.3    -0.3    
-0.3    -0.3    -0.3    -0.3    -0.3    
-0.3    -0.3    -0.3    -0.3    -0.35    
-0.35    -0.35    -0.35    -0.35    -0.35    
-0.35    -0.35    -0.35    -0.35    -0.35    
-0.35    -0.35    -0.35    -0.35    -0.35    
-0.35    -0.35    -0.35    -0.35    -0.35    
-0.35    -0.35    -0.35    -0.35    -0.35    
-0.35    -0.35    -0.35    -0.35    -0.35    
-0.35    -0.35    -0.35    -0.35    -0.35    
-0.35    -0.35    -0.35    -0.35    -0.35    
-0.35    -0.35    -0.35    -0.35    -0.35    
-0.35    -0.35    -0.35    -0.35    -0.35    
-0.35    -0.35    -0.35    -0.35    -0.35    
-0.35    -0.35    -0.35    -0.35    -0.35    
-0.35    -0.35    -0.35    -0.35    -0.35    
-0.35    -0.4    -0.4    -0.4    -0.4    
-0.4    -0.4    -0.4    -0.4    -0.4    
-0.4    -0.4    -0.4    -0.4    -0.4    
-0.4    -0.4    -0.4    -0.4    -0.4    
-0.4    -0.4    -0.4    -0.4    -0.4    
-0.4    -0.4    -0.4    -0.4    -0.4    
-0.4    -0.4    -0.4    -0.4    -0.4    
-0.4    -0.4    -0.4    -0.4    -0.4    
-0.4    -0.4    -0.4    -0.4    -0.4    
-0.4    -0.4    -0.4    -0.4    -0.4    
-0.4    -0.4    -0.4    -0.4    -0.4    
-0.4    -0.4    -0.4    -0.4    -0.4    
-0.4    -0.4    -0.4    -0.4    -0.4    
-0.4    -0.4    -0.4    -0.45    -0.45    
-0.45    -0.45    -0.45    -0.45    -0.45    
-0.45    -0.45    -0.45    -0.45    -0.45    
-0.45    -0.45    -0.45    -0.45    -0.45    
-0.45    -0.45    -0.45    -0.45    -0.45    
-0.45    -0.45    -0.45    -0.45    -0.45    
-0.45    -0.45    -0.45    -0.45    -0.45    
-0.45    -0.45    -0.45    -0.45    -0.45    
-0.45    -0.45    -0.45    -0.45    -0.45    
-0.45    -0.45    -0.45    -0.45    -0.45    
-0.45    -0.45    -0.45    -0.45    -0.45    
-0.45    -0.45    -0.45    -0.45    -0.45    
-0.45    -0.45    -0.45    -0.45    -0.45    
-0.45    -0.45    -0.45    -0.45    -0.45    
-0.5    -0.5    -0.5    -0.5    -0.5    
-0.5    -0.5    -0.5    -0.5    -0.5    
-0.5    -0.5    -0.5    -0.5    -0.5    
-0.5    -0.5    -0.5    -0.5    -0.5    
-0.5    -0.5    -0.5    -0.5    -0.5    
-0.5    -0.5    -0.5    -0.5    -0.5    
-0.5    -0.5    -0.5    -0.5    -0.5    
-0.5    -0.5    -0.5    -0.5    -0.5    
-0.5    -0.5    -0.5    -0.5    -0.5    
-0.5    -0.5    -0.5    -0.5    -0.5    
-0.5    -0.5    -0.5    -0.5    -0.5    
-0.5    -0.5    -0.5    -0.5    -0.5    
-0.5    -0.5    -0.5    -0.5    -0.5    
-0.5    -0.5    
0.0    0.05    0.05    1.3877787808e-17    0.1    
0.1    0.15    0.15    0.2    0.2    
0.25    0.25    0.0    0.05    0.1    
0.15    0.2    0.25    0.0    0.05    
0.1    0.15    0.2    0.25    0.3    
0.3    0.35    0.35    0.4    0.4    
0.45    0.45    0.5    0.5    0.0    
0.05    0.1    0.15    0.2    0.25    
0.3    0.35    0.4    0.45    0.5    
0.0    0.05    0.1    0.15    0.2    
0.25    0.3    0.35    0.4    0.45    
0.5    0.0    0.05    0.1    0.15    
0.2    0.25    0.3    0.35    0.4    
0.45    0.5    0.05    1.6653345369e-17    0.1    
0.15    0.2    0.25    0.0    0.05    
0.1    0.15    0.2    0.25    0.0    
0.05    0.1    0.15    0.2    0.25    
0.3    0.35    0.4    0.45    0.5    
0.0    0.05    0.1    0.15    0.2    
0.25    0.3    0.35    0.4    0.45    
0.5    0.0    0.05    0.1    0.15    
0.2    0.25    0.3    0.35    0.4    
0.45    0.5    0.0    0.05    0.1    
0.15    0.2    0.25    0.3    0.35    
0.4    0.45    0.5    0.0    0.05    
0.1    0.15    0.2    0.25    0.3    
0.35    0.4    0.45    0.5    0.05    
1.9428902931e-17    0.1    0.15    0.2    0.25    
0.0    0.05    0.1    0.15    0.2    
0.25    0.0    0.05    0.1    0.15    
0.2    0.25    0.3    0.35    0.4    
0.45    0.5    0.0    0.05    0.1    
0.15    0.2    0.25    0.3    0.35    
0.4    0.45    0.5    0.0    0.05    
0.1    0.15    0.2    0.25    0.3    
0.35    0.4    0.45    0.5    0.0    
0.05    0.1    0.15    0.2    0.25    
0.3    0.35    0.4    0.45    0.5    
0.0    0.05    0.1    0.15    0.2    
0.25    0.3    0.35    0.4    0.45    
0.5    0.05    2.2204460493e-17    0.1    0.15    
0.2    0.25    0.0    0.05    0.1    
0.15    0.2    0.25    0.0    0.05    
0.1    0.15    0.2    0.25    0.3    
0.35    0.4    0.45    0.5    0.0    
0.05    0.1    0.15    0.2    0.25    
0.3    0.35    0.4    0.45    0.5    
0.0    0.05    0.1    0.15    0.2    
0.25    0.3    0.35    0.4    0.45    
0.5    0.0    0.05    0.1    0.15    
0.2    0.25    0.3    0.35    0.4    
0.45    0.5    0.0    0.05    0.1    
0.15    0.2    0.25    0.3    0.35    
0.4    0.45    0.5    0.05    2.4980018054e-17    
0.1    0.15    0.2    0.25    0.0    
0.05    0.1    0.15    0.2    0.25    
0.0    0.05    0.1    0.15    0.2    
0.25    0.3    0.35    0.4    0.45    
0.5    0.0    0.05    0.1    0.15    
0.2    0.25    0.3    0.35    0.4    
0.45    0.5    0.0    0.05    0.1    
0.15    0.2    0.25    0.3    0.35    
0.4    0.45    0.5    0.0    0.05    
0.1    0.15    0.2    0.25    0.3    
0.35    0.4    0.45    0.5    0.0    
0.05    0.1    0.15    0.2    0.25    
0.3    0.35    0.4    0.45    0.5    
0.05    2.7755575616e-17    0.1    0.15    0.2    
0.25    0.0    0.05    0.1    0.15    
0.2    0.25    0.0    0.05    0.1    
0.15    0.2    0.25    0.3    0.35    
0.4    0.45    0.5    0.0    0.05    
0.1    0.15    0.2    0.25    0.3    
0.35    0.4    0.45    0.5    0.0    
0.05    0.1    0.15    0.2    0.25    
0.3    0.35    0.4    0.45    0.5    
0.0    0.05    0.1    0.15    0.2    
0.25    0.3    0.35    0.4    0.45    
0.5    0.0    0.05    0.1    0.15    
0.2    0.25    0.3    0.35    0.4    
0.45    0.5    
-0.25    -0.25    -0.2    -0.2    -0.25    
-0.2    -0.25    -0.2    -0.25    -0.2    
-0.25    -0.2    -0.3    -0.3    -0.3    
-0.3    -0.3    -0.3    -0.35    -0.35    
-0.35    -0.35    -0.35    -0.35    -0.35    
-0.3    -0.35    -0.3    -0.35    -0.3    
-0.35    -0.3    -0.35    -0.3    -0.4    
-0.4    -0.4    -0.4    -0.4    -0.4    
-0.4    -0.4    -0.4    -0.4    -0.4    
-0.45    -0.45    -0.45    -0.45    -0.45    
-0.45    -0.45    -0.45    -0.45    -0.45    
-0.45    -0.5    -0.5    -0.5    -0.5    
-0.5    -0.5    -0.5    -0.5    -0.5    
-0.5    -0.5    -0.2    -0.2    -0.2    
-0.2    -0.2    -0.2    -0.25    -0.25    
-0.25    -0.25    -0.25    -0.25    -0.3    
-0.3    -0.3    -0.3    -0.3    -0.3    
-0.3    -0.3    -0.3    -0.3    -0.3    
-0.35    -0.35    -0.35    -0.35    -0.35    
-0.35    -0.35    -0.35    -0.35    -0.35    
-0.35    -0.4    -0.4    -0.4    -0.4    
-0.4    -0.4    -0.4    -0.4    -0.4    
-0.4    -0.4    -0.45    -0.45    -0.45    
-0.45    -0.45    -0.45    -0.45    -0.45    
-0.45    -0.45    -0.45    -0.5    -0.5    
-0.5    -0.5    -0.5    -0.5    -0.5    
-0.5    -0.5    -0.5    -0.5    -0.2    
-0.2    -0.2    -0.2    -0.2    -0.2    
-0.25    -0.25    -0.25    -0.25    -0.25    
-0.25    -0.3    -0.3    -0.3    -0.3    
-0.3    -0.3    -0.3    -0.3    -0.3    
-0.3    -0.3    -0.35    -0.35    -0.35    
-0.35    -0.35    -0.35    -0.35    -0.35    
-0.35    -0.35    -0.35    -0.4    -0.4    
-0.4    -0.4    -0.4    -0.4    -0.4    
-0.4    -0.4    -0.4    -0.4    -0.45    
-0.45    -0.45    -0.45    -0.45    -0.45    
-0.45    -0.45    -0.45    -0.45    -0.45    
-0.5    -0.5    -0.5    -0.5    -0.5    
-0.5    -0.5    -0.5    -0.5    -0.5    
-0.5    -0.2    -0.2    -0.2    -0.2    
-0.2    -0.2    -0.25    -0.25    -0.25    
-0.25    -0.25    -0.25    -0.3    -0.3    
-0.3    -0.3    -0.3    -0.3    -0.3    
-0.3    -0.3    -0.3    -0.3    -0.35    
-0.35    -0.35    -0.35    -0.35    -0.35    
-0.35    -0.35    -0.35    -0.35    -0.35    
-0.4    -0.4    -0.4    -0.4    -0.4    
-0.4    -0.4    -0.4    -0.4    -0.4    
-0.4    -0.45    -0.45    -0.45    -0.45    
-0.45    -0.45    -0.45    -0.45    -0.45    
-0.45    -0.45    -0.5    -0.5    -0.5    
-0.5    -0.5    -0.5    -0.5    -0.5    
-0.5    -0.5    -0.5    -0.2    -0.2    
-0.2    -0.2    -0.2    -0.2    -0.25    
-0.25    -0.25    -0.25    -0.25    -0.25    
-0.3    -0.3    -0.3    -0.3    -0.3    
-0.3    -0.3    -0.3    -0.3    -0.3    
-0.3    -0.35    -0.35    -0.35    -0.35    
-0.35    -0.35    -0.35    -0.35    -0.35    
-0.35    -0.35    -0.4    -0.4    -0.4    
-0.4    -0.4    -0.4    -0.4    -0.4    
-0.4    -0.4    -0.4    -0.45    -0.45    
-0.45    -0.45    -0.45    -0.45    -0.45    
-0.45    -0.45    -0.45    -0.45    -0.5    
-0.5    -0.5    -0.5    -0.5    -0.5    
-0.5    -0.5    -0.5    -0.5    -0.5    
-0.2    -0.2    -0.2    -0.2    -0.2    
-0.2    -0.25    -0.25    -0.25    -0.25    
-0.25    -0.25    -0.3    -0.3    -0.3    
-0.3    -0.3    -0.3    -0.3    -0.3    
-0.3    -0.3    -0.3    -0.35    -0.35    
-0.35    -0.35    -0.35    -0.35    -0.35    
-0.35    -0.35    -0.35    -0.35    -0.4    
-0.4    -0.4    -0.4    -0.4    -0.4    
-0.4    -0.4    -0.4    -0.4    -0.4    
-0.45    -0.45    -0.45    -0.45    -0.45    
-0.45    -0.45    -0.45    -0.45    -0.45    
-0.45    -0.5    -0.5    -0.5    -0.5    
-0.5    -0.5    -0.5    -0.5    -0.5    
-0.5    -0.5    
348.507500618    359.454409076    364.754694181    366.822141542    334.460825889    
354.994942646    357.634337564    316.328585529    342.310145436    345.681889137    
292.816954021    325.670055152    329.970069529    303.660057135    309.1024132    
371.144880897    371.144880861    362.94490759    362.944907548    352.137111567    
352.137111527    337.696478702    337.696478661    318.133220863    318.133220821    
378.537258179    376.364219242    372.29129837    369.466874475    363.944735099    
360.244513422    352.578831562    347.689583503    291.303760114    336.769756492    
330.266859534    254.241987263    314.277672118    305.637747642    203.233377259    
281.579663944    270.332535683    134.72372077    233.313150801    219.597766049    
48.1989880488    162.194263348    148.188620694    61.7224035874    53.9251650052    
386.754310386    382.410971153    382.827557013    377.151349556    377.519346443    
370.018199748    370.168329219    360.116585367    359.682366676    346.00369222    
344.170959843    325.309785259    320.19045042    294.137862969    281.156257776    
246.299342713    214.178638779    173.080675792    95.8716656578    66.4447791242    
395.520293667    389.140847625    394.17853025    385.831128133    392.352248701    
381.288542439    389.795814551    374.872549653    386.082471052    365.488598769    
380.403324119    351.177774304    371.020983636    328.272864151    353.510574235    
289.658533775    314.140969491    221.460015165    201.776918816    99.1153696953    
396.32664762    395.19511138    393.630953061    391.39688117    388.067507185    
382.814113067    373.827482738    356.502874723    316.755400948    202.979984638    
375.333325019    368.341982755    359.123622846    346.777104456    329.9427555    
378.537258152    372.291298332    363.94473506    352.578831527    336.769756455    
382.41097115    377.15134955    370.018199741    360.11658536    346.003692209    
325.309785248    294.137862966    246.299342713    173.080675792    66.4447791238    
386.904859572    382.889625482    377.363472618    369.53665553    358.070567909    
340.623962331    313.032986097    268.008066913    193.897033715    77.2698397895    
391.912396943    389.3833608    385.859077601    380.776360961    373.127702585    
361.010324741    340.645080706    304.259848125    235.971472001    107.051143281    
397.263636785    396.398520598    395.183887739    393.411343737    390.690486238    
386.222703124    378.18154359    361.768131367    322.20396262    206.192187643    
384.782479449    380.390728472    374.534666154    366.561066404    355.414084659    
386.754310368    382.827556988    377.519346419    370.168329197    359.682366647    
389.140847621    385.831128127    381.288542431    374.872549646    365.488598758    
351.17777429    328.272864143    289.658533771    221.460015163    99.1153696944    
391.912396942    389.383360798    385.859077599    380.776360959    373.127702581    
361.010324736    340.645080702    304.259848122    235.971472    107.051143281    
395.00363866    393.409416045    391.158841043    387.850836658    382.729876881    
374.264725391    359.112917528    329.507803983    266.956829097    130.809133839    
398.309255294    397.763647485    396.987319177    395.831790048    394.004147033    
390.862454227    384.807407192    371.228690512    334.740546377    217.302410608    
394.854441936    393.354500983    391.341096598    388.570771713    384.628284832    
395.520293661    394.178530242    392.352248694    389.795814544    386.082471043    
396.326647618    395.195111377    393.630953058    391.396881167    388.06750718    
382.814113061    373.827482734    356.502874721    316.755400947    202.979984637    
397.263636784    396.398520598    395.183887739    393.411343736    390.690486236    
386.222703121    378.181543588    361.768131366    322.203962619    206.192187643    
398.309255294    397.763647484    396.987319177    395.831790048    394.004147032    
390.862454226    384.807407192    371.228690512    334.740546377    217.302410608    
399.42780733    399.241021277    398.97306792    398.568883731    397.91442183    
396.738196846    394.266244487    387.776944664    365.491931803    266.677417002    

0.075    0.025    0.025    0.025    0.125    
0.075    0.075    0.175    0.125    0.125    
0.225    0.175    0.175    0.225    0.225    
0.025    0.025    0.075    0.075    0.125    
0.125    0.175    0.175    0.225    0.225    
0.025    0.025    0.075    0.075    0.125    
0.125    0.175    0.175    0.275    0.225    
0.225    0.325    0.275    0.275    0.375    
0.325    0.325    0.425    0.375    0.375    
0.475    0.425    0.425    0.475    0.475    
0.025    0.025    0.075    0.075    0.125    
0.125    0.175    0.175    0.225    0.225    
0.275    0.275    0.325    0.325    0.375    
0.375    0.425    0.425    0.475    0.475    
0.025    0.025    0.075    0.075    0.125    
0.125    0.175    0.175    0.225    0.225    
0.275    0.275    0.325    0.325    0.375    
0.375    0.425    0.425    0.475    0.475    
0.025    0.075    0.125    0.175    0.225    
0.275    0.325    0.375    0.425    0.475    
0.025    0.075    0.125    0.175    0.225    
0.025    0.075    0.125    0.175    0.225    
0.025    0.075    0.125    0.175    0.225    
0.275    0.325    0.375    0.425    0.475    
0.025    0.075    0.125    0.175    0.225    
0.275    0.325    0.375    0.425    0.475    
0.025    0.075    0.125    0.175    0.225    
0.275    0.325    0.375    0.425    0.475    
0.025    0.075    0.125    0.175    0.225    
0.275    0.325    0.375    0.425    0.475    
0.025    0.075    0.125    0.175    0.225    
0.025    0.075    0.125    0.175    0.225    
0.025    0.075    0.125    0.175    0.225    
0.275    0.325    0.375    0.425    0.475    
0.025    0.075    0.125    0.175    0.225    
0.275    0.325    0.375    0.425    0.475    
0.025    0.075    0.125    0.175    0.225    
0.275    0.325    0.375    0.425    0.475    
0.025    0.075    0.125    0.175    0.225    
0.275    0.325    0.375    0.425    0.475    
0.025    0.075    0.125    0.175    0.225    
0.025    0.075    0.125    0.175    0.225    
0.025    0.075    0.125    0.175    0.225    
0.275    0.325    0.375    0.425    0.475    
0.025    0.075    0.125    0.175    0.225    
0.275    0.325    0.375    0.425    0.475    
0.025    0.075    0.125    0.175    0.225    
0.275    0.325    0.375    0.425    0.475    
0.025    0.075    0.125    0.175    0.225    
0.275    0.325    0.375    0.425    0.475    

68     75     2     3     70     76     5     6     
3     2     75     68     4     1     74     69     
75     74     1     2     81     80     13     14     
74     75     68     69     141     142     135     136     
70     76     5     6     71     77     7     8     
76     75     2     5     82     81     14     15     
75     76     70     68     142     143     137     135     
71     77     7     8     72     78     9     10     
77     76     5     7     83     82     15     16     
76     77     71     70     143     144     138     137     
72     78     9     10     73     79     11     12     
78     77     7     9     84     83     16     17     
77     78     72     71     144     145     139     138     
79     78     9     11     85     84     17     18     
78     79     73     72     145     146     140     139     
81     80     13     14     92     91     19     20     
80     81     75     74     147     148     142     141     
82     81     14     15     93     92     20     21     
81     82     76     75     148     149     143     142     
83     82     15     16     94     93     21     22     
82     83     77     76     149     150     144     143     
84     83     16     17     95     94     22     23     
83     84     78     77     150     151     145     144     
85     84     17     18     96     95     23     24     
84     85     79     78     151     152     146     145     
92     91     19     20     103     102     35     36     
91     92     81     80     158     159     148     147     
93     92     20     21     104     103     36     37     
92     93     82     81     159     160     149     148     
94     93     21     22     105     104     37     38     
93     94     83     82     160     161     150     149     
95     94     22     23     106     105     38     39     
94     95     84     83     161     162     151     150     
85     96     24     18     86     97     25     26     
96     95     23     24     107     106     39     40     
95     96     85     84     162     163     152     151     
86     97     25     26     87     98     27     28     
97     96     24     25     108     107     40     41     
96     97     86     85     163     164     153     152     
87     98     27     28     88     99     29     30     
98     97     25     27     109     108     41     42     
97     98     87     86     164     165     154     153     
88     99     29     30     89     100     31     32     
99     98     27     29     110     109     42     43     
98     99     88     87     165     166     155     154     
89     100     31     32     90     101     33     34     
100     99     29     31     111     110     43     44     
99     100     89     88     166     167     156     155     
101     100     31     33     112     111     44     45     
100     101     90     89     167     168     157     156     
103     102     35     36     114     113     46     47     
102     103     92     91     169     170     159     158     
104     103     36     37     115     114     47     48     
103     104     93     92     170     171     160     159     
105     104     37     38     116     115     48     49     
104     105     94     93     171     172     161     160     
106     105     38     39     117     116     49     50     
105     106     95     94     172     173     162     161     
107     106     39     40     118     117     50     51     
106     107     96     95     173     174     163     162     
108     107     40     41     119     118     51     52     
107     108     97     96     174     175     164     163     
109     108     41     42     120     119     52     53     
108     109     98     97     175     176     165     164     
110     109     42     43     121     120     53     54     
109     110     99     98     176     177     166     165     
111     110     43     44     122     121     54     55     
110     111     100     99     177     178     167     166     
112     111     44     45     123     122     55     56     
111     112     101     100     178     179     168     167     
114     113     46     47     125     124     57     58     
113     114     103     102     180     181     170     169     
115     114     47     48     126     125     58     59     
114     115     104     103     181     182     171     170     
116     115     48     49     127     126     59     60     
115     116     105     104     182     183     172     171     
117     116     49     50     128     127     60     61     
116     117     106     105     183     184     173     172     
118     117     50     51     129     128     61     62     
117     118     107     106     184     185     174     173     
119     118     51     52     130     129     62     63     
118     119     108     107     185     186     175     174     
120     119     52     53     131     130     63     64     
119     120     109     108     186     187     176     175     
121     120     53     54     132     131     64     65     
120     121     110     109     187     188     177     176     
122     121     54     55     133     132     65     66     
121     122     111     110     188     189     178     177     
123     122     55     56     134     133     66     67     
122     123     112     111     189     190     179     178     
124     125     114     113     191     192     181     180     
125     126     115     114     192     193     182     181     
126     127     116     115     193     194     183     182     
127     128     117     116     194     195     184     183     
128     129     118     117     195     196     185     184     
129     130     119     118     196     197     186     185     
130     131     120     119     197     198     187     186     
131     132     121     120     198     199     188     187     
132     133     122     121     199     200     189     188     
133     134     123     122     200     201     190     189     
141     142     135     136     208     209     202     203     
142     143     137     135     209     210     204     202     
143     144     138     137     210     211     205     204     
144     145     139     138     211     212     206     205     
145     146     140     139     212     213     207     206     
147     148     142     141     214     215     209     208     
148     149     143     142     215     216     210     209     
149     150     144     143     216     217     211     210     
150     151     145     144     217     218     212     211     
151     152     146     145     218     219     213     212     
158     159     148     147     225     226     215     214     
159     160     149     148     226     227     216     215     
160     161     150     149     227     228     217     216     
161     162     151     150     228     229     218     217     
162     163     152     151     229     230     219     218     
163     164     153     152     230     231     220     219     
164     165     154     153     231     232     221     220     
165     166     155     154     232     233     222     221     
166     167     156     155     233     234     223     222     
167     168     157     156     234     235     224     223     
169     170     159     158     236     237     226     225     
170     171     160     159     237     238     227     226     
171     172     161     160     238     239     228     227     
172     173     162     161     239     240     229     228     
173     174     163     162     240     241     230     229     
174     175     164     163     241     242     231     230     
175     176     165     164     242     243     232     231     
176     177     166     165     243     244     233     232     
177     178     167     166     244     245     234     233     
178     179     168     167     245     246     235     234     
180     181     170     169     247     248     237     236     
181     182     171     170     248     249     238     237     
182     183     172     171     249     250     239     238     
183     184     173     172     250     251     240     239     
184     185     174     173     251     252     241     240     
185     186     175     174     252     253     242     241     
186     187     176     175     253     254     243     242     
187     188     177     176     254     255     244     243     
188     189     178     177     255     256     245     244     
189     190     179     178     256     257     246     245     
191     192     181     180     258     259     248     247     
192     193     182     181     259     260     249     248     
193     194     183     182     260     261     250     249     
194     195     184     183     261     262     251     250     
195     196     185     184     262     263     252     251     
196     197     186     185     263     264     253     252     
197     198     187     186     264     265     254     253     
198     199     188     187     265     266     255     254     
199     200     189     188     266     267     256     255     
200     201     190     189     267     268     257     256     
208     209     202     203     275     276     269     270     
209     210     204     202     276     277     271     269     
210     211     205     204     277     278     272     271     
211     212     206     205     278     279     273     272     
212     213     207     206     279     280     274     273     
214     215     209     208     281     282     276     275     
215     216     210     209     282     283     277     276     
216     217     211     210     283     284     278     277     
217     218     212     211     284     285     279     278     
218     219     213     212     285     286     280     279     
225     226     215     214     292     293     282     281     
226     227     216     215     293     294     283     282     
227     228     217     216     294     295     284     283     
228     229     218     217     295     296     285     284     
229     230     219     218     296     297     286     285     
230     231     220     219     297     298     287     286     
231     232     221     220     298     299     288     287     
232     233     222     221     299     300     289     288     
233     234     223     222     300     301     290     289     
234     235     224     223     301     302     291     290     
236     237     226     225     303     304     293     292     
237     238     227     226     304     305     294     293     
238     239     228     227     305     306     295     294     
239     240     229     228     306     307     296     295     
240     241     230     229     307     308     297     296     
241     242     231     230     308     309     298     297     
242     243     232     231     309     310     299     298     
243     244     233     232     310     311     300     299     
244     245     234     233     311     312     301     300     
245     246     235     234     312     313     302     301     
247     248     237     236     314     315     304     303     
248     249     238     237     315     316     305     304     
249     250     239     238     316     317     306     305     
250     251     240     239     317     318     307     306     
251     252     241     240     318     319     308     307     
252     253     242     241     319     320     309     308     
253     254     243     242     320     321     310     309     
254     255     244     243     321     322     311     310     
255     256     245     244     322     323     312     311     
256     257     246     245     323     324     313     312     
258     259     248     247     325     326     315     314     
259     260     249     248     326     327     316     315     
260     261     250     249     327     328     317     316     
261     262     251     250     328     329     318     317     
262     263     252     251     329     330     319     318     
263     264     253     252     330     331     320     319     
264     265     254     253     331     332     321     320     
265     266     255     254     332     333     322     321     
266     267     256     255     333     334     323     322     
267     268     257     256     334     335     324     323     
275     276     269     270     342     343     336     337     
276     277     271     269     343     344     338     336     
277     278     272     271     344     345     339     338     
278     279     273     272     345     346     340     339     
279     280     274     273     346     347     341     340     
281     282     276     275     348     349     343     342     
282     283     277     276     349     350     344     343     