Title = " tecplot file for 2D Cavity problem " 
variables = "x", "y", "z", "velX", "cellCentroidY" 
Zone T = "nmesh0" N = 396 E = 250 DATAPACKING = BLOCK, VARLOCATION = ([4-5]=CELLCENTERED), ZONETYPE=FEBRICK
0.0    0.0    0.0    0.0    0.0    
0.0    2.7755575616e-17    0.0    2.7755575616e-17    0.0    
1.9081958236e-17    0.0    0.0    0.0    0.0    
0.0    0.0    1.0408340856e-17    0.0    0.0    
0.0    -2.7755575616e-17    -2.7755575616e-17    -1.3877787808e-17    0.0    
0.0    -2.7755575616e-17    -2.7755575616e-17    -2.7755575616e-17    -2.7755575616e-17    
0.0    0.0    0.0    0.0    0.0    
-6.9388939039e-18    0.0    0.0    0.0    -2.7755575616e-17    
-2.7755575616e-17    -1.3877787808e-17    2.7755575616e-17    0.0    0.0    
0.0    0.0    2.7755575616e-17    0.0    0.0    
0.0    0.0    0.0    0.0    0.0    
0.0    0.0    -2.7755575616e-17    -2.7755575616e-17    -1.3877787808e-17    
0.0    0.0    0.0    0.0    0.0    
0.0    -0.05    -0.05    -0.05    -0.05    
-0.05    -0.05    -0.05    -0.05    -0.05    
-0.05    -0.05    -0.05    -0.05    -0.05    
-0.05    -0.05    -0.05    -0.05    -0.05    
-0.05    -0.05    -0.05    -0.05    -0.05    
-0.05    -0.05    -0.05    -0.05    -0.05    
-0.05    -0.05    -0.05    -0.05    -0.05    
-0.05    -0.05    -0.05    -0.05    -0.05    
-0.05    -0.05    -0.05    -0.05    -0.05    
-0.05    -0.05    -0.05    -0.05    -0.05    
-0.05    -0.05    -0.05    -0.05    -0.05    
-0.05    -0.05    -0.05    -0.05    -0.05    
-0.05    -0.05    -0.05    -0.05    -0.05    
-0.05    -0.05    -0.1    -0.1    -0.1    
-0.1    -0.1    -0.1    -0.1    -0.1    
-0.1    -0.1    -0.1    -0.1    -0.1    
-0.1    -0.1    -0.1    -0.1    -0.1    
-0.1    -0.1    -0.1    -0.1    -0.1    
-0.1    -0.1    -0.1    -0.1    -0.1    
-0.1    -0.1    -0.1    -0.1    -0.1    
-0.1    -0.1    -0.1    -0.1    -0.1    
-0.1    -0.1    -0.1    -0.1    -0.1    
-0.1    -0.1    -0.1    -0.1    -0.1    
-0.1    -0.1    -0.1    -0.1    -0.1    
-0.1    -0.1    -0.1    -0.1    -0.1    
-0.1    -0.1    -0.1    -0.1    -0.1    
-0.1    -0.1    -0.1    -0.15    -0.15    
-0.15    -0.15    -0.15    -0.15    -0.15    
-0.15    -0.15    -0.15    -0.15    -0.15    
-0.15    -0.15    -0.15    -0.15    -0.15    
-0.15    -0.15    -0.15    -0.15    -0.15    
-0.15    -0.15    -0.15    -0.15    -0.15    
-0.15    -0.15    -0.15    -0.15    -0.15    
-0.15    -0.15    -0.15    -0.15    -0.15    
-0.15    -0.15    -0.15    -0.15    -0.15    
-0.15    -0.15    -0.15    -0.15    -0.15    
-0.15    -0.15    -0.15    -0.15    -0.15    
-0.15    -0.15    -0.15    -0.15    -0.15    
-0.15    -0.15    -0.15    -0.15    -0.15    
-0.15    -0.15    -0.15    -0.15    -0.2    
-0.2    -0.2    -0.2    -0.2    -0.2    
-0.2    -0.2    -0.2    -0.2    -0.2    
-0.2    -0.2    -0.2    -0.2    -0.2    
-0.2    -0.2    -0.2    -0.2    -0.2    
-0.2    -0.2    -0.2    -0.2    -0.2    
-0.2    -0.2    -0.2    -0.2    -0.2    
-0.2    -0.2    -0.2    -0.2    -0.2    
-0.2    -0.2    -0.2    -0.2    -0.2    
-0.2    -0.2    -0.2    -0.2    -0.2    
-0.2    -0.2    -0.2    -0.2    -0.2    
-0.2    -0.2    -0.2    -0.2    -0.2    
-0.2    -0.2    -0.2    -0.2    -0.2    
-0.2    -0.2    -0.2    -0.2    -0.2    
-0.25    -0.25    -0.25    -0.25    -0.25    
-0.25    -0.25    -0.25    -0.25    -0.25    
-0.25    -0.25    -0.25    -0.25    -0.25    
-0.25    -0.25    -0.25    -0.25    -0.25    
-0.25    -0.25    -0.25    -0.25    -0.25    
-0.25    -0.25    -0.25    -0.25    -0.25    
-0.25    -0.25    -0.25    -0.25    -0.25    
-0.25    -0.25    -0.25    -0.25    -0.25    
-0.25    -0.25    -0.25    -0.25    -0.25    
-0.25    -0.25    -0.25    -0.25    -0.25    
-0.25    -0.25    -0.25    -0.25    -0.25    
-0.25    -0.25    -0.25    -0.25    -0.25    
-0.25    -0.25    -0.25    -0.25    -0.25    
-0.25    
0.25    0.3    0.3    0.25    0.35    
0.35    0.4    0.4    0.45    0.45    
0.5    0.5    0.25    0.3    0.35    
0.4    0.45    0.5    0.25    0.3    
0.35    0.4    0.45    0.5    0.25    
0.3    0.35    0.4    0.45    0.5    
0.25    0.3    0.35    0.4    0.45    
0.5    0.25    0.3    0.35    0.4    
0.45    0.5    0.25    0.3    0.35    
0.4    0.45    0.5    0.25    0.3    
0.35    0.4    0.45    0.5    0.25    
0.3    0.35    0.4    0.45    0.5    
0.25    0.3    0.35    0.4    0.45    
0.5    0.25    0.25    0.3    0.3    
0.35    0.35    0.4    0.4    0.45    
0.45    0.5    0.5    0.25    0.3    
0.35    0.4    0.45    0.5    0.25    
0.3    0.35    0.4    0.45    0.5    
0.25    0.3    0.35    0.4    0.45    
0.5    0.25    0.3    0.35    0.4    
0.45    0.5    0.25    0.3    0.35    
0.4    0.45    0.5    0.25    0.3    
0.35    0.4    0.45    0.5    0.25    
0.3    0.35    0.4    0.45    0.5    
0.25    0.3    0.35    0.4    0.45    
0.5    0.25    0.3    0.35    0.4    
0.45    0.5    0.25    0.25    0.3    
0.3    0.35    0.35    0.4    0.4    
0.45    0.45    0.5    0.5    0.25    
0.3    0.35    0.4    0.45    0.5    
0.25    0.3    0.35    0.4    0.45    
0.5    0.25    0.3    0.35    0.4    
0.45    0.5    0.25    0.3    0.35    
0.4    0.45    0.5    0.25    0.3    
0.35    0.4    0.45    0.5    0.25    
0.3    0.35    0.4    0.45    0.5    
0.25    0.3    0.35    0.4    0.45    
0.5    0.25    0.3    0.35    0.4    
0.45    0.5    0.25    0.3    0.35    
0.4    0.45    0.5    0.25    0.25    
0.3    0.3    0.35    0.35    0.4    
0.4    0.45    0.45    0.5    0.5    
0.25    0.3    0.35    0.4    0.45    
0.5    0.25    0.3    0.35    0.4    
0.45    0.5    0.25    0.3    0.35    
0.4    0.45    0.5    0.25    0.3    
0.35    0.4    0.45    0.5    0.25    
0.3    0.35    0.4    0.45    0.5    
0.25    0.3    0.35    0.4    0.45    
0.5    0.25    0.3    0.35    0.4    
0.45    0.5    0.25    0.3    0.35    
0.4    0.45    0.5    0.25    0.3    
0.35    0.4    0.45    0.5    0.25    
0.25    0.3    0.3    0.35    0.35    
0.4    0.4    0.45    0.45    0.5    
0.5    0.25    0.3    0.35    0.4    
0.45    0.5    0.25    0.3    0.35    
0.4    0.45    0.5    0.25    0.3    
0.35    0.4    0.45    0.5    0.25    
0.3    0.35    0.4    0.45    0.5    
0.25    0.3    0.35    0.4    0.45    
0.5    0.25    0.3    0.35    0.4    
0.45    0.5    0.25    0.3    0.35    
0.4    0.45    0.5    0.25    0.3    
0.35    0.4    0.45    0.5    0.25    
0.3    0.35    0.4    0.45    0.5    
0.25    0.25    0.3    0.3    0.35    
0.35    0.4    0.4    0.45    0.45    
0.5    0.5    0.25    0.3    0.35    
0.4    0.45    0.5    0.25    0.3    
0.35    0.4    0.45    0.5    0.25    
0.3    0.35    0.4    0.45    0.5    
0.25    0.3    0.35    0.4    0.45    
0.5    0.25    0.3    0.35    0.4    
0.45    0.5    0.25    0.3    0.35    
0.4    0.45    0.5    0.25    0.3    
0.35    0.4    0.45    0.5    0.25    
0.3    0.35    0.4    0.45    0.5    
0.25    0.3    0.35    0.4    0.45    
0.5    
0.45    0.45    0.5    0.5    0.45    
0.5    0.45    0.5    0.45    0.5    
0.45    0.5    0.4    0.4    0.4    
0.4    0.4    0.4    0.35    0.35    
0.35    0.35    0.35    0.35    0.3    
0.3    0.3    0.3    0.3    0.3    
0.25    0.25    0.25    0.25    0.25    
0.25    0.2    0.2    0.2    0.2    
0.2    0.2    0.15    0.15    0.15    
0.15    0.15    0.15    0.1    0.1    
0.1    0.1    0.1    0.1    0.05    
0.05    0.05    0.05    0.05    0.05    
0.0    0.0    0.0    0.0    0.0    
0.0    0.5    0.45    0.5    0.45    
0.5    0.45    0.5    0.45    0.5    
0.45    0.45    0.5    0.4    0.4    
0.4    0.4    0.4    0.4    0.35    
0.35    0.35    0.35    0.35    0.35    
0.3    0.3    0.3    0.3    0.3    
0.3    0.25    0.25    0.25    0.25    
0.25    0.25    0.2    0.2    0.2    
0.2    0.2    0.2    0.15    0.15    
0.15    0.15    0.15    0.15    0.1    
0.1    0.1    0.1    0.1    0.1    
0.05    0.05    0.05    0.05    0.05    
0.05    0.0    0.0    0.0    0.0    
0.0    0.0    0.5    0.45    0.5    
0.45    0.5    0.45    0.5    0.45    
0.5    0.45    0.45    0.5    0.4    
0.4    0.4    0.4    0.4    0.4    
0.35    0.35    0.35    0.35    0.35    
0.35    0.3    0.3    0.3    0.3    
0.3    0.3    0.25    0.25    0.25    
0.25    0.25    0.25    0.2    0.2    
0.2    0.2    0.2    0.2    0.15    
0.15    0.15    0.15    0.15    0.15    
0.1    0.1    0.1    0.1    0.1    
0.1    0.05    0.05    0.05    0.05    
0.05    0.05    0.0    0.0    0.0    
0.0    0.0    0.0    0.5    0.45    
0.5    0.45    0.5    0.45    0.5    
0.45    0.5    0.45    0.45    0.5    
0.4    0.4    0.4    0.4    0.4    
0.4    0.35    0.35    0.35    0.35    
0.35    0.35    0.3    0.3    0.3    
0.3    0.3    0.3    0.25    0.25    
0.25    0.25    0.25    0.25    0.2    
0.2    0.2    0.2    0.2    0.2    
0.15    0.15    0.15    0.15    0.15    
0.15    0.1    0.1    0.1    0.1    
0.1    0.1    0.05    0.05    0.05    
0.05    0.05    0.05    0.0    0.0    
0.0    0.0    0.0    0.0    0.5    
0.45    0.5    0.45    0.5    0.45    
0.5    0.45    0.5    0.45    0.45    
0.5    0.4    0.4    0.4    0.4    
0.4    0.4    0.35    0.35    0.35    
0.35    0.35    0.35    0.3    0.3    
0.3    0.3    0.3    0.3    0.25    
0.25    0.25    0.25    0.25    0.25    
0.2    0.2    0.2    0.2    0.2    
0.2    0.15    0.15    0.15    0.15    
0.15    0.15    0.1    0.1    0.1    
0.1    0.1    0.1    0.05    0.05    
0.05    0.05    0.05    0.05    0.0    
0.0    0.0    0.0    0.0    0.0    
0.5    0.45    0.5    0.45    0.5    
0.45    0.5    0.45    0.5    0.45    
0.45    0.5    0.4    0.4    0.4    
0.4    0.4    0.4    0.35    0.35    
0.35    0.35    0.35    0.35    0.3    
0.3    0.3    0.3    0.3    0.3    
0.25    0.25    0.25    0.25    0.25    
0.25    0.2    0.2    0.2    0.2    
0.2    0.2    0.15    0.15    0.15    
0.15    0.15    0.15    0.1    0.1    
0.1    0.1    0.1    0.1    0.05    
0.05    0.05    0.05    0.05    0.05    
0.0    0.0    0.0    0.0    0.0    
0.0    
366.693450494    376.200619943    331.841919029    376.411609372    349.520294718    
307.546826051    366.892962256    311.181340386    269.559460521    349.687516905    
200.639247437    205.6345851    311.293915061    92.6142559648    200.679135706    
294.573488713    332.464613934    261.504389719    308.134910517    215.043828614    
270.051768148    148.852203493    205.965665149    56.6802128889    92.7314903699    
265.260834634    295.578956723    227.905960303    262.451844971    179.467810258    
215.83527911    117.51888351    149.383507366    41.746676624    56.8681412564    
243.14425912    266.606286494    204.126586037    229.170180951    156.34932862    
180.521050262    99.3033401845    118.22438701    34.2850642547    41.9958990999    
226.945995589    244.778905036    187.575521579    205.657860645    141.227436558    
157.621470109    88.2098680475    100.153556522    30.0753531344    34.5850156002    
215.429811665    228.81626193    176.255192155    189.322397676    131.32761676    
142.674847844    81.2680032775    89.1752071238    27.5416716869    30.4155148324    
207.603877599    217.482998593    168.77498589    178.16802502    124.978535302    
132.908916575    76.940088212    82.32077172    25.9944011778    27.9122725516    
202.757881546    209.790085459    164.229695768    170.807628795    121.194110148    
126.655875569    74.4042349917    78.0552663623    25.0979744537    26.3866727385    
200.442838779    205.030476669    162.081784169    166.339717273    119.424906735    
122.93317802    73.2296227181    75.5593794907    24.6851143119    25.5040962654    
202.757881497    164.229695734    121.194110118    74.4042349733    25.0979744467    
376.859905752    367.323248504    350.053678155    311.54374728    200.768432784    
333.786293508    309.401447779    271.127776702    206.698724858    92.9932345153    
297.7091336    264.487352854    217.559675302    150.555368184    57.2858790701    
269.450179064    231.878083064    182.807174141    119.773425301    42.5470732084    
248.225695096    208.927624121    160.372176779    102.01191912    35.2450744954    
232.750903259    193.041869125    145.793659049    91.2766837858    31.16075542    
221.794050183    182.231016415    136.306362552    84.60496444    28.7212768869    
214.373483285    175.117083651    130.251728382    80.4688104593    27.2406728135    
209.7900854    170.807628757    126.655875542    78.0552663452    26.3866727323    
207.603877483    168.774985814    124.97853524    76.940088174    25.994401165    
377.60235436    368.054745591    350.693457696    311.991480105    200.931344771    
335.971162672    311.549104613    273.001365976    208.006557324    93.4681145246    
301.219188767    267.923932427    220.545100823    152.630997205    58.0373363224    
274.117729268    236.425987272    186.738634134    122.494630141    43.5292344904    
253.859540563    214.390060063    165.071214138    105.250597833    36.4107581195    
239.157677627    199.225614273    151.090014214    94.9135975599    32.4667379374    
228.791096525    188.958708024    142.047890446    88.5358812274    30.1302729788    
221.794050093    182.23101635    136.306362506    84.6049644096    28.7212768767    
217.482998441    178.168024914    132.908916499    82.3207716714    27.9122725353    
215.429811451    176.255192002    131.327616646    81.2680032042    27.5416716635    
378.73474126    369.215053969    351.75293404    312.765253667    201.222730749    
339.294171501    314.941973246    276.086198705    210.248661277    94.3083287396    
306.532107216    273.316860246    225.415999891    156.146990433    59.347128962    
281.141994956    243.507484691    193.087698289    127.044891873    45.214843638    
262.288474935    222.830380051    172.585801807    110.601467916    38.3836620783    
248.692041579    208.715356634    159.488109812    100.861670358    34.6517814787    
239.15767752    199.225614188    151.090014153    94.9135975187    32.4667379224    
232.750903065    193.041868978    145.793658941    91.2766837154    31.1607553951    
228.816261672    189.322397484    142.6748477    89.1752070313    30.4155148012    
226.945995255    187.575521325    141.227436366    88.2098679316    30.0753530939    

0.325    0.275    0.275    0.275    0.375    
0.325    0.325    0.425    0.375    0.375    
0.475    0.425    0.425    0.475    0.475    
0.275    0.275    0.325    0.325    0.375    
0.375    0.425    0.425    0.475    0.475    
0.275    0.275    0.325    0.325    0.375    
0.375    0.425    0.425    0.475    0.475    
0.275    0.275    0.325    0.325    0.375    
0.375    0.425    0.425    0.475    0.475    
0.275    0.275    0.325    0.325    0.375    
0.375    0.425    0.425    0.475    0.475    
0.275    0.275    0.325    0.325    0.375    
0.375    0.425    0.425    0.475    0.475    
0.275    0.275    0.325    0.325    0.375    
0.375    0.425    0.425    0.475    0.475    
0.275    0.275    0.325    0.325    0.375    
0.375    0.425    0.425    0.475    0.475    
0.275    0.275    0.325    0.325    0.375    
0.375    0.425    0.425    0.475    0.475    
0.275    0.325    0.375    0.425    0.475    
0.275    0.325    0.375    0.425    0.475    
0.275    0.325    0.375    0.425    0.475    
0.275    0.325    0.375    0.425    0.475    
0.275    0.325    0.375    0.425    0.475    
0.275    0.325    0.375    0.425    0.475    
0.275    0.325    0.375    0.425    0.475    
0.275    0.325    0.375    0.425    0.475    
0.275    0.325    0.375    0.425    0.475    
0.275    0.325    0.375    0.425    0.475    
0.275    0.325    0.375    0.425    0.475    
0.275    0.325    0.375    0.425    0.475    
0.275    0.325    0.375    0.425    0.475    
0.275    0.325    0.375    0.425    0.475    
0.275    0.325    0.375    0.425    0.475    
0.275    0.325    0.375    0.425    0.475    
0.275    0.325    0.375    0.425    0.475    
0.275    0.325    0.375    0.425    0.475    
0.275    0.325    0.375    0.425    0.475    
0.275    0.325    0.375    0.425    0.475    
0.275    0.325    0.375    0.425    0.475    
0.275    0.325    0.375    0.425    0.475    
0.275    0.325    0.375    0.425    0.475    
0.275    0.325    0.375    0.425    0.475    
0.275    0.325    0.375    0.425    0.475    
0.275    0.325    0.375    0.425    0.475    
0.275    0.325    0.375    0.425    0.475    
0.275    0.325    0.375    0.425    0.475    
0.275    0.325    0.375    0.425    0.475    
0.275    0.325    0.375    0.425    0.475    
0.275    0.325    0.375    0.425    0.475    

69     70     2     3     71     72     5     6     
3     2     70     69     4     1     68     67     
70     68     1     2     80     79     13     14     
68     70     69     67     134     136     135     133     
71     72     5     6     73     74     7     8     
72     70     2     5     81     80     14     15     
70     72     71     69     136     138     137     135     
73     74     7     8     75     76     9     10     
74     72     5     7     82     81     15     16     
72     74     73     71     138     140     139     137     
75     76     9     10     78     77     11     12     
76     74     7     9     83     82     16     17     
74     76     75     73     140     142     141     139     
77     76     9     11     84     83     17     18     
76     77     78     75     142     143     144     141     
80     79     13     14     86     85     19     20     
79     80     70     68     145     146     136     134     
81     80     14     15     87     86     20     21     
80     81     72     70     146     147     138     136     
82     81     15     16     88     87     21     22     
81     82     74     72     147     148     140     138     
83     82     16     17     89     88     22     23     
82     83     76     74     148     149     142     140     
84     83     17     18     90     89     23     24     
83     84     77     76     149     150     143     142     
86     85     19     20     92     91     25     26     
85     86     80     79     151     152     146     145     
87     86     20     21     93     92     26     27     
86     87     81     80     152     153     147     146     
88     87     21     22     94     93     27     28     
87     88     82     81     153     154     148     147     
89     88     22     23     95     94     28     29     
88     89     83     82     154     155     149     148     
90     89     23     24     96     95     29     30     
89     90     84     83     155     156     150     149     
92     91     25     26     98     97     31     32     
91     92     86     85     157     158     152     151     
93     92     26     27     99     98     32     33     
92     93     87     86     158     159     153     152     
94     93     27     28     100     99     33     34     
93     94     88     87     159     160     154     153     
95     94     28     29     101     100     34     35     
94     95     89     88     160     161     155     154     
96     95     29     30     102     101     35     36     
95     96     90     89     161     162     156     155     
98     97     31     32     104     103     37     38     
97     98     92     91     163     164     158     157     
99     98     32     33     105     104     38     39     
98     99     93     92     164     165     159     158     
100     99     33     34     106     105     39     40     
99     100     94     93     165     166     160     159     
101     100     34     35     107     106     40     41     
100     101     95     94     166     167     161     160     
102     101     35     36     108     107     41     42     
101     102     96     95     167     168     162     161     
104     103     37     38     110     109     43     44     
103     104     98     97     169     170     164     163     
105     104     38     39     111     110     44     45     
104     105     99     98     170     171     165     164     
106     105     39     40     112     111     45     46     
105     106     100     99     171     172     166     165     
107     106     40     41     113     112     46     47     
106     107     101     100     172     173     167     166     
108     107     41     42     114     113     47     48     
107     108     102     101     173     174     168     167     
110     109     43     44     116     115     49     50     
109     110     104     103     175     176     170     169     
111     110     44     45     117     116     50     51     
110     111     105     104     176     177     171     170     
112     111     45     46     118     117     51     52     
111     112     106     105     177     178     172     171     
113     112     46     47     119     118     52     53     
112     113     107     106     178     179     173     172     
114     113     47     48     120     119     53     54     
113     114     108     107     179     180     174     173     
116     115     49     50     122     121     55     56     
115     116     110     109     181     182     176     175     
117     116     50     51     123     122     56     57     
116     117     111     110     182     183     177     176     
118     117     51     52     124     123     57     58     
117     118     112     111     183     184     178     177     
119     118     52     53     125     124     58     59     
118     119     113     112     184     185     179     178     
120     119     53     54     126     125     59     60     
119     120     114     113     185     186     180     179     
122     121     55     56     128     127     61     62     
121     122     116     115     187     188     182     181     
123     122     56     57     129     128     62     63     
122     123     117     116     188     189     183     182     
124     123     57     58     130     129     63     64     
123     124     118     117     189     190     184     183     
125     124     58     59     131     130     64     65     
124     125     119     118     190     191     185     184     
126     125     59     60     132     131     65     66     
125     126     120     119     191     192     186     185     
127     128     122     121     193     194     188     187     
128     129     123     122     194     195     189     188     
129     130     124     123     195     196     190     189     
130     131     125     124     196     197     191     190     
131     132     126     125     197     198     192     191     
134     136     135     133     200     202     201     199     
136     138     137     135     202     204     203     201     
138     140     139     137     204     206     205     203     
140     142     141     139     206     208     207     205     
142     143     144     141     208     209     210     207     
145     146     136     134     211     212     202     200     
146     147     138     136     212     213     204     202     
147     148     140     138     213     214     206     204     
148     149     142     140     214     215     208     206     
149     150     143     142     215     216     209     208     
151     152     146     145     217     218     212     211     
152     153     147     146     218     219     213     212     
153     154     148     147     219     220     214     213     
154     155     149     148     220     221     215     214     
155     156     150     149     221     222     216     215     
157     158     152     151     223     224     218     217     
158     159     153     152     224     225     219     218     
159     160     154     153     225     226     220     219     
160     161     155     154     226     227     221     220     
161     162     156     155     227     228     222     221     
163     164     158     157     229     230     224     223     
164     165     159     158     230     231     225     224     
165     166     160     159     231     232     226     225     
166     167     161     160     232     233     227     226     
167     168     162     161     233     234     228     227     
169     170     164     163     235     236     230     229     
170     171     165     164     236     237     231     230     
171     172     166     165     237     238     232     231     
172     173     167     166     238     239     233     232     
173     174     168     167     239     240     234     233     
175     176     170     169     241     242     236     235     
176     177     171     170     242     243     237     236     
177     178     172     171     243     244     238     237     
178     179     173     172     244     245     239     238     
179     180     174     173     245     246     240     239     
181     182     176     175     247     248     242     241     
182     183     177     176     248     249     243     242     
183     184     178     177     249     250     244     243     
184     185     179     178     250     251     245     244     
185     186     180     179     251     252     246     245     
187     188     182     181     253     254     248     247     
188     189     183     182     254     255     249     248     
189     190     184     183     255     256     250     249     
190     191     185     184     256     257     251     250     
191     192     186     185     257     258     252     251     
193     194     188     187     259     260     254     253     
194     195     189     188     260     261     255     254     
195     196     190     189     261     262     256     255     
196     197     191     190     262     263     257     256     
197     198     192     191     263     264     258     257     
200     202     201     199     266     268     267     265     
202     204     203     201     268     270     269     267     
204     206     205     203     270     272     271     269     
206     208     207     205     272     274     273     271     
208     209     210     207     274     275     276     273     
211     212     202     200     277     278     268     266     
212     213     204     202     278     279     270     268     
213     214     206     204     279     280     272     270     
214     215     208     206     280     281     274     272     
215     216     209     208     281     282     275     274     
217     218     212     211     283     284     278     277     
218     219     213     212     284     285     279     278     
219     220     214     213     285     286     280     279     
220     221     215     214     286     287     281     280     
221     222     216     215     287     288     282     281     
223     224     218     217     289     290     284     283     
224     225     219     218     290     291     285     284     
225     226     220     219     291     292     286     285     
226     227     221     220     292     293     287     286     
227     228     222     221     293     294     288     287     
229     230     224     223     295     296     290     289     
230     231     225     224     296     297     291     290     
231     232     226     225     297     298     292     291     
232     233     227     226     298     299     293     292     
233     234     228     227     299     300     294     293     
235     236     230     229     301     302     296     295     
236     237     231     230     302     303     297     296     
237     238     232     231     303     304     298     297     
238     239     233     232     304     305     299     298     
239     240     234     233     305     306     300     299     
241     242     236     235     307     308     302     301     
242     243     237     236     308     309     303     302     
243     244     238     237     309     310     304     303     
244     245     239     238     310     311     305     304     
245     246     240     239     311     312     306     305     
247     248     242     241     313     314     308     307     
248     249     243     242     314     315     309     308     
249     250     244     243     315     316     310     309     
250     251     245     244     316     317     311     310     
251     252     246     245     317     318     312     311     
253     254     248     247     319     320     314     313     
254     255     249     248     320     321     315     314     
255     256     250     249     321     322     316     315     
256     257     251     250     322     323     317     316     
257     258     252     251     323     324     318     317     
259     260     254     253     325     326     320     319     
260     261     255     254     326     327     321     320     
261     262     256     255     327     328     322     321     
262     263     257     256     328     329     323     322     
263     264     258     257     329     330     324     323     
266     268     267     265     332     334     333     331     
268     270     269     267     334     336     335     333     
270     272     271     269     336     338     337     335     
272     274     273     271     338     340     339     337     
274     275     276     273     340     341     342     339     
277     278     268     266     343     344     334     332     
278     279     270     268     344     345     336     334     
279     280     272     270     345     346     338     336     
280     281     274     272     346     347     340     338     
281     282     275     274     347     348     341     340     
283     284     278     277     349     350     344     343     
284     285     279     278     350     351     345     344     
285     286     280     279     351     352     346     345     
286     287     281     280     352     353     347     346     