Title = " tecplot file for 2D Cavity problem " 
variables = "x", "y", "z", "velX", "cellCentroidY" 
Zone T = "nmesh0" N = 396 E = 250 DATAPACKING = BLOCK, VARLOCATION = ([4-5]=CELLCENTERED), ZONETYPE=FEBRICK
0.25    0.25    0.25    0.25    0.25    
0.25    0.25    0.25    0.25    0.25    
0.25    0.25    0.25    0.25    0.25    
0.25    0.25    0.25    0.25    0.25    
0.25    0.25    0.25    0.25    0.25    
0.25    0.25    0.25    0.25    0.25    
0.25    0.25    0.25    0.25    0.25    
0.25    0.25    0.25    0.25    0.25    
0.25    0.25    0.25    0.25    0.25    
0.25    0.25    0.25    0.25    0.25    
0.25    0.25    0.25    0.25    0.25    
0.25    0.25    0.25    0.25    0.25    
0.25    0.25    0.25    0.25    0.25    
0.25    0.2    0.2    0.2    0.2    
0.2    0.2    0.2    0.2    0.2    
0.2    0.2    0.2    0.2    0.2    
0.2    0.2    0.2    0.2    0.2    
0.2    0.2    0.2    0.2    0.2    
0.2    0.2    0.2    0.2    0.2    
0.2    0.2    0.2    0.2    0.2    
0.2    0.2    0.2    0.2    0.2    
0.2    0.2    0.2    0.2    0.2    
0.2    0.2    0.2    0.2    0.2    
0.2    0.2    0.2    0.2    0.2    
0.2    0.2    0.2    0.2    0.2    
0.2    0.2    0.2    0.2    0.2    
0.2    0.2    0.15    0.15    0.15    
0.15    0.15    0.15    0.15    0.15    
0.15    0.15    0.15    0.15    0.15    
0.15    0.15    0.15    0.15    0.15    
0.15    0.15    0.15    0.15    0.15    
0.15    0.15    0.15    0.15    0.15    
0.15    0.15    0.15    0.15    0.15    
0.15    0.15    0.15    0.15    0.15    
0.15    0.15    0.15    0.15    0.15    
0.15    0.15    0.15    0.15    0.15    
0.15    0.15    0.15    0.15    0.15    
0.15    0.15    0.15    0.15    0.15    
0.15    0.15    0.15    0.15    0.15    
0.15    0.15    0.15    0.1    0.1    
0.1    0.1    0.1    0.1    0.1    
0.1    0.1    0.1    0.1    0.1    
0.1    0.1    0.1    0.1    0.1    
0.1    0.1    0.1    0.1    0.1    
0.1    0.1    0.1    0.1    0.1    
0.1    0.1    0.1    0.1    0.1    
0.1    0.1    0.1    0.1    0.1    
0.1    0.1    0.1    0.1    0.1    
0.1    0.1    0.1    0.1    0.1    
0.1    0.1    0.1    0.1    0.1    
0.1    0.1    0.1    0.1    0.1    
0.1    0.1    0.1    0.1    0.1    
0.1    0.1    0.1    0.1    0.05    
0.05    0.05    0.05    0.05    0.05    
0.05    0.05    0.05    0.05    0.05    
0.05    0.05    0.05    0.05    0.05    
0.05    0.05    0.05    0.05    0.05    
0.05    0.05    0.05    0.05    0.05    
0.05    0.05    0.05    0.05    0.05    
0.05    0.05    0.05    0.05    0.05    
0.05    0.05    0.05    0.05    0.05    
0.05    0.05    0.05    0.05    0.05    
0.05    0.05    0.05    0.05    0.05    
0.05    0.05    0.05    0.05    0.05    
0.05    0.05    0.05    0.05    0.05    
0.05    0.05    0.05    0.05    0.05    
0.0    0.0    0.0    0.0    0.0    
0.0    0.0    2.7755575616e-17    0.0    2.7755575616e-17    
1.9081958236e-17    0.0    0.0    0.0    0.0    
0.0    0.0    1.0408340856e-17    0.0    0.0    
0.0    -2.7755575616e-17    -2.7755575616e-17    -1.3877787808e-17    0.0    
0.0    -2.7755575616e-17    -2.7755575616e-17    -2.7755575616e-17    -2.7755575616e-17    
0.0    0.0    0.0    0.0    0.0    
-6.9388939039e-18    0.0    0.0    0.0    -2.7755575616e-17    
-2.7755575616e-17    -1.3877787808e-17    2.7755575616e-17    0.0    0.0    
0.0    0.0    2.7755575616e-17    0.0    0.0    
0.0    0.0    0.0    0.0    0.0    
0.0    0.0    -2.7755575616e-17    -2.7755575616e-17    -1.3877787808e-17    
0.0    0.0    0.0    0.0    0.0    
0.0    
0.25    0.3    0.3    0.25    0.35    
0.35    0.4    0.4    0.45    0.45    
0.5    0.5    0.25    0.3    0.35    
0.4    0.45    0.5    0.25    0.3    
0.35    0.4    0.45    0.5    0.25    
0.3    0.35    0.4    0.45    0.5    
0.25    0.3    0.35    0.4    0.45    
0.5    0.25    0.3    0.35    0.4    
0.45    0.5    0.25    0.3    0.35    
0.4    0.45    0.5    0.25    0.3    
0.35    0.4    0.45    0.5    0.25    
0.3    0.35    0.4    0.45    0.5    
0.25    0.3    0.35    0.4    0.45    
0.5    0.25    0.25    0.3    0.3    
0.35    0.35    0.4    0.4    0.45    
0.45    0.5    0.5    0.25    0.3    
0.35    0.4    0.45    0.5    0.25    
0.3    0.35    0.4    0.45    0.5    
0.25    0.3    0.35    0.4    0.45    
0.5    0.25    0.3    0.35    0.4    
0.45    0.5    0.25    0.3    0.35    
0.4    0.45    0.5    0.25    0.3    
0.35    0.4    0.45    0.5    0.25    
0.3    0.35    0.4    0.45    0.5    
0.25    0.3    0.35    0.4    0.45    
0.5    0.25    0.3    0.35    0.4    
0.45    0.5    0.25    0.25    0.3    
0.3    0.35    0.35    0.4    0.4    
0.45    0.45    0.5    0.5    0.25    
0.3    0.35    0.4    0.45    0.5    
0.25    0.3    0.35    0.4    0.45    
0.5    0.25    0.3    0.35    0.4    
0.45    0.5    0.25    0.3    0.35    
0.4    0.45    0.5    0.25    0.3    
0.35    0.4    0.45    0.5    0.25    
0.3    0.35    0.4    0.45    0.5    
0.25    0.3    0.35    0.4    0.45    
0.5    0.25    0.3    0.35    0.4    
0.45    0.5    0.25    0.3    0.35    
0.4    0.45    0.5    0.25    0.25    
0.3    0.3    0.35    0.35    0.4    
0.4    0.45    0.45    0.5    0.5    
0.25    0.3    0.35    0.4    0.45    
0.5    0.25    0.3    0.35    0.4    
0.45    0.5    0.25    0.3    0.35    
0.4    0.45    0.5    0.25    0.3    
0.35    0.4    0.45    0.5    0.25    
0.3    0.35    0.4    0.45    0.5    
0.25    0.3    0.35    0.4    0.45    
0.5    0.25    0.3    0.35    0.4    
0.45    0.5    0.25    0.3    0.35    
0.4    0.45    0.5    0.25    0.3    
0.35    0.4    0.45    0.5    0.25    
0.25    0.3    0.3    0.35    0.35    
0.4    0.4    0.45    0.45    0.5    
0.5    0.25    0.3    0.35    0.4    
0.45    0.5    0.25    0.3    0.35    
0.4    0.45    0.5    0.25    0.3    
0.35    0.4    0.45    0.5    0.25    
0.3    0.35    0.4    0.45    0.5    
0.25    0.3    0.35    0.4    0.45    
0.5    0.25    0.3    0.35    0.4    
0.45    0.5    0.25    0.3    0.35    
0.4    0.45    0.5    0.25    0.3    
0.35    0.4    0.45    0.5    0.25    
0.3    0.35    0.4    0.45    0.5    
0.25    0.25    0.3    0.3    0.35    
0.35    0.4    0.4    0.45    0.45    
0.5    0.5    0.25    0.3    0.35    
0.4    0.45    0.5    0.25    0.3    
0.35    0.4    0.45    0.5    0.25    
0.3    0.35    0.4    0.45    0.5    
0.25    0.3    0.35    0.4    0.45    
0.5    0.25    0.3    0.35    0.4    
0.45    0.5    0.25    0.3    0.35    
0.4    0.45    0.5    0.25    0.3    
0.35    0.4    0.45    0.5    0.25    
0.3    0.35    0.4    0.45    0.5    
0.25    0.3    0.35    0.4    0.45    
0.5    
0.45    0.45    0.5    0.5    0.45    
0.5    0.45    0.5    0.45    0.5    
0.45    0.5    0.4    0.4    0.4    
0.4    0.4    0.4    0.35    0.35    
0.35    0.35    0.35    0.35    0.3    
0.3    0.3    0.3    0.3    0.3    
0.25    0.25    0.25    0.25    0.25    
0.25    0.2    0.2    0.2    0.2    
0.2    0.2    0.15    0.15    0.15    
0.15    0.15    0.15    0.1    0.1    
0.1    0.1    0.1    0.1    0.05    
0.05    0.05    0.05    0.05    0.05    
0.0    0.0    0.0    0.0    0.0    
0.0    0.5    0.45    0.5    0.45    
0.5    0.45    0.5    0.45    0.5    
0.45    0.45    0.5    0.4    0.4    
0.4    0.4    0.4    0.4    0.35    
0.35    0.35    0.35    0.35    0.35    
0.3    0.3    0.3    0.3    0.3    
0.3    0.25    0.25    0.25    0.25    
0.25    0.25    0.2    0.2    0.2    
0.2    0.2    0.2    0.15    0.15    
0.15    0.15    0.15    0.15    0.1    
0.1    0.1    0.1    0.1    0.1    
0.05    0.05    0.05    0.05    0.05    
0.05    0.0    0.0    0.0    0.0    
0.0    0.0    0.5    0.45    0.5    
0.45    0.5    0.45    0.5    0.45    
0.5    0.45    0.45    0.5    0.4    
0.4    0.4    0.4    0.4    0.4    
0.35    0.35    0.35    0.35    0.35    
0.35    0.3    0.3    0.3    0.3    
0.3    0.3    0.25    0.25    0.25    
0.25    0.25    0.25    0.2    0.2    
0.2    0.2    0.2    0.2    0.15    
0.15    0.15    0.15    0.15    0.15    
0.1    0.1    0.1    0.1    0.1    
0.1    0.05    0.05    0.05    0.05    
0.05    0.05    0.0    0.0    0.0    
0.0    0.0    0.0    0.5    0.45    
0.5    0.45    0.5    0.45    0.5    
0.45    0.5    0.45    0.45    0.5    
0.4    0.4    0.4    0.4    0.4    
0.4    0.35    0.35    0.35    0.35    
0.35    0.35    0.3    0.3    0.3    
0.3    0.3    0.3    0.25    0.25    
0.25    0.25    0.25    0.25    0.2    
0.2    0.2    0.2    0.2    0.2    
0.15    0.15    0.15    0.15    0.15    
0.15    0.1    0.1    0.1    0.1    
0.1    0.1    0.05    0.05    0.05    
0.05    0.05    0.05    0.0    0.0    
0.0    0.0    0.0    0.0    0.5    
0.45    0.5    0.45    0.5    0.45    
0.5    0.45    0.5    0.45    0.45    
0.5    0.4    0.4    0.4    0.4    
0.4    0.4    0.35    0.35    0.35    
0.35    0.35    0.35    0.3    0.3    
0.3    0.3    0.3    0.3    0.25    
0.25    0.25    0.25    0.25    0.25    
0.2    0.2    0.2    0.2    0.2    
0.2    0.15    0.15    0.15    0.15    
0.15    0.15    0.1    0.1    0.1    
0.1    0.1    0.1    0.05    0.05    
0.05    0.05    0.05    0.05    0.0    
0.0    0.0    0.0    0.0    0.0    
0.5    0.45    0.5    0.45    0.5    
0.45    0.5    0.45    0.5    0.45    
0.45    0.5    0.4    0.4    0.4    
0.4    0.4    0.4    0.35    0.35    
0.35    0.35    0.35    0.35    0.3    
0.3    0.3    0.3    0.3    0.3    
0.25    0.25    0.25    0.25    0.25    
0.25    0.2    0.2    0.2    0.2    
0.2    0.2    0.15    0.15    0.15    
0.15    0.15    0.15    0.1    0.1    
0.1    0.1    0.1    0.1    0.05    
0.05    0.05    0.05    0.05    0.05    
0.0    0.0    0.0    0.0    0.0    
0.0    
369.215053979    378.734741274    339.294171539    377.602354371    351.752934047    
314.941973273    368.0547456    312.765253671    276.086198724    350.693457702    
201.222730751    210.248661287    311.991480109    94.3083287426    200.931344771    
306.532107277    335.971162705    273.316860287    311.549104637    225.415999921    
273.001365993    156.146990448    208.006557333    59.3471289668    93.468114527    
281.141995036    301.219188819    243.507484749    267.923932464    193.087698328    
220.545100848    127.044891894    152.630997219    45.214843646    58.0373363264    
262.288475035    274.117729332    222.830380123    236.425987318    172.585801854    
186.738634167    110.601467945    122.49463016    38.3836620873    43.5292344963    
248.692041695    253.859540636    208.715356719    214.390060119    159.488109872    
165.071214179    100.861670391    105.250597856    34.6517814897    36.4107581266    
239.157677657    239.157677715    199.22561429    199.225614344    151.090014219    
151.090014263    94.9135975579    94.9135975864    32.4667379347    32.4667379454    
232.750903216    228.791096628    193.041869086    188.958708106    145.793659015    
142.0478905    91.2766837571    88.5358812558    31.1607554082    30.1302729876    
228.816261825    221.794050205    189.322397592    182.231016434    142.674847776    
136.30636256    89.1752070752    84.6049644387    30.4155148138    28.7212768853    
226.945995396    217.482998545    187.575521436    178.168024989    141.227436446    
132.908916548    88.2098679729    82.3207716979    30.0753531069    27.9122725429    
215.429811531    176.255192066    131.32761669    81.2680032296    27.5416716702    
376.859905762    367.323248513    350.053678161    311.543747284    200.768432785    
333.786293537    309.401447802    271.127776717    206.698724867    92.9932345176    
297.709133646    264.487352887    217.559675325    150.555368197    57.2858790741    
269.45017912    231.878083103    182.807174172    119.77342532    42.5470732139    
248.225695157    208.927624171    160.37217682    102.011919142    35.2450745021    
232.750903333    193.041869188    145.793659094    91.2766838101    31.1607554272    
221.79405027    182.231016485    136.306362601    84.604964465    28.7212768943    
214.373483375    175.117083726    130.251728428    80.4688104834    27.2406728208    
209.790085479    170.807628817    126.65587558    78.0552663659    26.3866727386    
207.603877528    168.774985854    124.978535269    76.940088191    25.9944011705    
376.411609379    366.892962262    349.68751691    311.293915064    200.679135707    
332.464613954    308.134910534    270.051768161    205.965665156    92.7314903722    
295.578956754    262.451844998    215.835279129    149.383507377    56.8681412598    
266.606286537    229.170180985    180.521050288    118.224387025    41.9958991045    
244.778905083    205.657860687    157.621470142    100.153556541    34.5850156058    
228.816261988    189.322397728    142.674847882    89.1752071439    30.4155148387    
217.482998659    178.168025079    132.908916614    82.3207717409    27.9122725584    
209.790085528    170.807628853    126.655875606    78.0552663835    26.3866727446    
205.030476726    166.33971732    122.93317805    75.5593795079    25.5040962712    
202.757881519    164.229695759    121.194110133    74.4042349885    25.0979744518    
376.200619944    366.693450496    349.520294719    311.181340387    200.639247437    
331.841919031    307.546826053    269.559460526    205.634585102    92.6142559657    
294.573488716    261.504389729    215.04382862    148.852203496    56.68021289    
265.260834639    227.905960317    179.467810264    117.518883514    41.7466766254    
243.144259128    204.126586045    156.349328629    99.3033401891    34.2850642563    
226.945995594    187.575521596    141.227436568    88.2098680536    30.0753531362    
215.429811674    176.255192173    131.327616771    81.2680032833    27.541671689    
207.603877602    168.774985909    124.97853531    76.9400882165    25.99440118    
202.757881545    164.229695776    121.194110147    74.4042349971    25.0979744553    
200.442838748    162.081784154    119.424906731    73.2296227164    24.6851143116    

0.325    0.275    0.275    0.275    0.375    
0.325    0.325    0.425    0.375    0.375    
0.475    0.425    0.425    0.475    0.475    
0.275    0.275    0.325    0.325    0.375    
0.375    0.425    0.425    0.475    0.475    
0.275    0.275    0.325    0.325    0.375    
0.375    0.425    0.425    0.475    0.475    
0.275    0.275    0.325    0.325    0.375    
0.375    0.425    0.425    0.475    0.475    
0.275    0.275    0.325    0.325    0.375    
0.375    0.425    0.425    0.475    0.475    
0.275    0.275    0.325    0.325    0.375    
0.375    0.425    0.425    0.475    0.475    
0.275    0.275    0.325    0.325    0.375    
0.375    0.425    0.425    0.475    0.475    
0.275    0.275    0.325    0.325    0.375    
0.375    0.425    0.425    0.475    0.475    
0.275    0.275    0.325    0.325    0.375    
0.375    0.425    0.425    0.475    0.475    
0.275    0.325    0.375    0.425    0.475    
0.275    0.325    0.375    0.425    0.475    
0.275    0.325    0.375    0.425    0.475    
0.275    0.325    0.375    0.425    0.475    
0.275    0.325    0.375    0.425    0.475    
0.275    0.325    0.375    0.425    0.475    
0.275    0.325    0.375    0.425    0.475    
0.275    0.325    0.375    0.425    0.475    
0.275    0.325    0.375    0.425    0.475    
0.275    0.325    0.375    0.425    0.475    
0.275    0.325    0.375    0.425    0.475    
0.275    0.325    0.375    0.425    0.475    
0.275    0.325    0.375    0.425    0.475    
0.275    0.325    0.375    0.425    0.475    
0.275    0.325    0.375    0.425    0.475    
0.275    0.325    0.375    0.425    0.475    
0.275    0.325    0.375    0.425    0.475    
0.275    0.325    0.375    0.425    0.475    
0.275    0.325    0.375    0.425    0.475    
0.275    0.325    0.375    0.425    0.475    
0.275    0.325    0.375    0.425    0.475    
0.275    0.325    0.375    0.425    0.475    
0.275    0.325    0.375    0.425    0.475    
0.275    0.325    0.375    0.425    0.475    
0.275    0.325    0.375    0.425    0.475    
0.275    0.325    0.375    0.425    0.475    
0.275    0.325    0.375    0.425    0.475    
0.275    0.325    0.375    0.425    0.475    
0.275    0.325    0.375    0.425    0.475    
0.275    0.325    0.375    0.425    0.475    
0.275    0.325    0.375    0.425    0.475    

69     70     2     3     71     72     5     6     
3     2     70     69     4     1     68     67     
70     68     1     2     80     79     13     14     
68     70     69     67     134     136     135     133     
71     72     5     6     73     74     7     8     
72     70     2     5     81     80     14     15     
70     72     71     69     136     138     137     135     
73     74     7     8     75     76     9     10     
74     72     5     7     82     81     15     16     
72     74     73     71     138     140     139     137     
75     76     9     10     78     77     11     12     
76     74     7     9     83     82     16     17     
74     76     75     73     140     142     141     139     
77     76     9     11     84     83     17     18     
76     77     78     75     142     143     144     141     
80     79     13     14     86     85     19     20     
79     80     70     68     145     146     136     134     
81     80     14     15     87     86     20     21     
80     81     72     70     146     147     138     136     
82     81     15     16     88     87     21     22     
81     82     74     72     147     148     140     138     
83     82     16     17     89     88     22     23     
82     83     76     74     148     149     142     140     
84     83     17     18     90     89     23     24     
83     84     77     76     149     150     143     142     
86     85     19     20     92     91     25     26     
85     86     80     79     151     152     146     145     
87     86     20     21     93     92     26     27     
86     87     81     80     152     153     147     146     
88     87     21     22     94     93     27     28     
87     88     82     81     153     154     148     147     
89     88     22     23     95     94     28     29     
88     89     83     82     154     155     149     148     
90     89     23     24     96     95     29     30     
89     90     84     83     155     156     150     149     
92     91     25     26     98     97     31     32     
91     92     86     85     157     158     152     151     
93     92     26     27     99     98     32     33     
92     93     87     86     158     159     153     152     
94     93     27     28     100     99     33     34     
93     94     88     87     159     160     154     153     
95     94     28     29     101     100     34     35     
94     95     89     88     160     161     155     154     
96     95     29     30     102     101     35     36     
95     96     90     89     161     162     156     155     
98     97     31     32     104     103     37     38     
97     98     92     91     163     164     158     157     
99     98     32     33     105     104     38     39     
98     99     93     92     164     165     159     158     
100     99     33     34     106     105     39     40     
99     100     94     93     165     166     160     159     
101     100     34     35     107     106     40     41     
100     101     95     94     166     167     161     160     
102     101     35     36     108     107     41     42     
101     102     96     95     167     168     162     161     
104     103     37     38     110     109     43     44     
103     104     98     97     169     170     164     163     
105     104     38     39     111     110     44     45     
104     105     99     98     170     171     165     164     
106     105     39     40     112     111     45     46     
105     106     100     99     171     172     166     165     
107     106     40     41     113     112     46     47     
106     107     101     100     172     173     167     166     
108     107     41     42     114     113     47     48     
107     108     102     101     173     174     168     167     
110     109     43     44     116     115     49     50     
109     110     104     103     175     176     170     169     
111     110     44     45     117     116     50     51     
110     111     105     104     176     177     171     170     
112     111     45     46     118     117     51     52     
111     112     106     105     177     178     172     171     
113     112     46     47     119     118     52     53     
112     113     107     106     178     179     173     172     
114     113     47     48     120     119     53     54     
113     114     108     107     179     180     174     173     
116     115     49     50     122     121     55     56     
115     116     110     109     181     182     176     175     
117     116     50     51     123     122     56     57     
116     117     111     110     182     183     177     176     
118     117     51     52     124     123     57     58     
117     118     112     111     183     184     178     177     
119     118     52     53     125     124     58     59     
118     119     113     112     184     185     179     178     
120     119     53     54     126     125     59     60     
119     120     114     113     185     186     180     179     
122     121     55     56     128     127     61     62     
121     122     116     115     187     188     182     181     
123     122     56     57     129     128     62     63     
122     123     117     116     188     189     183     182     
124     123     57     58     130     129     63     64     
123     124     118     117     189     190     184     183     
125     124     58     59     131     130     64     65     
124     125     119     118     190     191     185     184     
126     125     59     60     132     131     65     66     
125     126     120     119     191     192     186     185     
127     128     122     121     193     194     188     187     
128     129     123     122     194     195     189     188     
129     130     124     123     195     196     190     189     
130     131     125     124     196     197     191     190     
131     132     126     125     197     198     192     191     
134     136     135     133     200     202     201     199     
136     138     137     135     202     204     203     201     
138     140     139     137     204     206     205     203     
140     142     141     139     206     208     207     205     
142     143     144     141     208     209     210     207     
145     146     136     134     211     212     202     200     
146     147     138     136     212     213     204     202     
147     148     140     138     213     214     206     204     
148     149     142     140     214     215     208     206     
149     150     143     142     215     216     209     208     
151     152     146     145     217     218     212     211     
152     153     147     146     218     219     213     212     
153     154     148     147     219     220     214     213     
154     155     149     148     220     221     215     214     
155     156     150     149     221     222     216     215     
157     158     152     151     223     224     218     217     
158     159     153     152     224     225     219     218     
159     160     154     153     225     226     220     219     
160     161     155     154     226     227     221     220     
161     162     156     155     227     228     222     221     
163     164     158     157     229     230     224     223     
164     165     159     158     230     231     225     224     
165     166     160     159     231     232     226     225     
166     167     161     160     232     233     227     226     
167     168     162     161     233     234     228     227     
169     170     164     163     235     236     230     229     
170     171     165     164     236     237     231     230     
171     172     166     165     237     238     232     231     
172     173     167     166     238     239     233     232     
173     174     168     167     239     240     234     233     
175     176     170     169     241     242     236     235     
176     177     171     170     242     243     237     236     
177     178     172     171     243     244     238     237     
178     179     173     172     244     245     239     238     
179     180     174     173     245     246     240     239     
181     182     176     175     247     248     242     241     
182     183     177     176     248     249     243     242     
183     184     178     177     249     250     244     243     
184     185     179     178     250     251     245     244     
185     186     180     179     251     252     246     245     
187     188     182     181     253     254     248     247     
188     189     183     182     254     255     249     248     
189     190     184     183     255     256     250     249     
190     191     185     184     256     257     251     250     
191     192     186     185     257     258     252     251     
193     194     188     187     259     260     254     253     
194     195     189     188     260     261     255     254     
195     196     190     189     261     262     256     255     
196     197     191     190     262     263     257     256     
197     198     192     191     263     264     258     257     
200     202     201     199     266     268     267     265     
202     204     203     201     268     270     269     267     
204     206     205     203     270     272     271     269     
206     208     207     205     272     274     273     271     
208     209     210     207     274     275     276     273     
211     212     202     200     277     278     268     266     
212     213     204     202     278     279     270     268     
213     214     206     204     279     280     272     270     
214     215     208     206     280     281     274     272     
215     216     209     208     281     282     275     274     
217     218     212     211     283     284     278     277     
218     219     213     212     284     285     279     278     
219     220     214     213     285     286     280     279     
220     221     215     214     286     287     281     280     
221     222     216     215     287     288     282     281     
223     224     218     217     289     290     284     283     
224     225     219     218     290     291     285     284     
225     226     220     219     291     292     286     285     
226     227     221     220     292     293     287     286     
227     228     222     221     293     294     288     287     
229     230     224     223     295     296     290     289     
230     231     225     224     296     297     291     290     
231     232     226     225     297     298     292     291     
232     233     227     226     298     299     293     292     
233     234     228     227     299     300     294     293     
235     236     230     229     301     302     296     295     
236     237     231     230     302     303     297     296     
237     238     232     231     303     304     298     297     
238     239     233     232     304     305     299     298     
239     240     234     233     305     306     300     299     
241     242     236     235     307     308     302     301     
242     243     237     236     308     309     303     302     
243     244     238     237     309     310     304     303     
244     245     239     238     310     311     305     304     
245     246     240     239     311     312     306     305     
247     248     242     241     313     314     308     307     
248     249     243     242     314     315     309     308     
249     250     244     243     315     316     310     309     
250     251     245     244     316     317     311     310     
251     252     246     245     317     318     312     311     
253     254     248     247     319     320     314     313     
254     255     249     248     320     321     315     314     
255     256     250     249     321     322     316     315     
256     257     251     250     322     323     317     316     
257     258     252     251     323     324     318     317     
259     260     254     253     325     326     320     319     
260     261     255     254     326     327     321     320     
261     262     256     255     327     328     322     321     
262     263     257     256     328     329     323     322     
263     264     258     257     329     330     324     323     
266     268     267     265     332     334     333     331     
268     270     269     267     334     336     335     333     
270     272     271     269     336     338     337     335     
272     274     273     271     338     340     339     337     
274     275     276     273     340     341     342     339     
277     278     268     266     343     344     334     332     
278     279     270     268     344     345     336     334     
279     280     272     270     345     346     338     336     
280     281     274     272     346     347     340     338     
281     282     275     274     347     348     341     340     
283     284     278     277     349     350     344     343     
284     285     279     278     350     351     345     344     
285     286     280     279     351     352     346     345     
286     287     281     280     352     353     347     346     
287     288     282     281     353     354     348     347     
289     290     284     283     355     356     350     349     
290     291     285     284     356     357     351     350     
291     292     286     285     357     358     352     351     
292     293     287     286     358     359     353     352     