Title = " tecplot file for 2D Cavity problem " 
variables = "x", "y", "z", "velX", "cellCentroidY" 
Zone T = "nmesh0" N = 402 E = 250 DATAPACKING = BLOCK, VARLOCATION = ([4-5]=CELLCENTERED), ZONETYPE=FEBRICK
0.45    0.45    0.5    0.5    0.45    
0.5    0.45    0.5    0.45    0.5    
0.45    0.5    0.45    0.5    0.45    
0.5    0.45    0.5    0.45    0.5    
0.45    0.5    0.45    0.5    0.45    
0.5    0.45    0.5    0.45    0.5    
0.45    0.5    0.45    0.5    0.45    
0.5    0.45    0.5    0.45    0.5    
0.45    0.5    0.45    0.5    0.45    
0.5    0.45    0.5    0.45    0.5    
0.45    0.5    0.45    0.5    0.45    
0.5    0.45    0.5    0.45    0.5    
0.4    0.4    0.4    0.4    0.4    
0.4    0.4    0.4    0.4    0.4    
0.4    0.4    0.4    0.4    0.4    
0.4    0.4    0.4    0.4    0.4    
0.4    0.4    0.4    0.4    0.4    
0.4    0.4    0.4    0.4    0.4    
0.35    0.35    0.35    0.35    0.35    
0.35    0.35    0.35    0.35    0.35    
0.35    0.35    0.35    0.35    0.35    
0.35    0.35    0.35    0.35    0.35    
0.35    0.35    0.35    0.35    0.35    
0.35    0.35    0.35    0.35    0.35    
0.35    0.35    0.35    0.35    0.35    
0.35    0.3    0.3    0.3    0.3    
0.3    0.3    0.3    0.3    0.3    
0.3    0.3    0.3    0.3    0.3    
0.3    0.3    0.3    0.3    0.3    
0.3    0.3    0.3    0.3    0.3    
0.3    0.3    0.3    0.3    0.3    
0.3    0.3    0.3    0.3    0.3    
0.3    0.3    0.25    0.25    0.25    
0.25    0.25    0.25    0.25    0.25    
0.25    0.25    0.25    0.25    0.25    
0.25    0.25    0.25    0.25    0.25    
0.25    0.25    0.25    0.25    0.25    
0.25    0.25    0.25    0.25    0.25    
0.25    0.25    0.25    0.25    0.25    
0.25    0.25    0.25    0.2    0.2    
0.2    0.2    0.2    0.2    0.2    
0.2    0.2    0.2    0.2    0.2    
0.2    0.2    0.2    0.2    0.2    
0.2    0.2    0.2    0.2    0.2    
0.2    0.2    0.2    0.2    0.2    
0.2    0.2    0.2    0.2    0.2    
0.2    0.2    0.2    0.2    0.15    
0.15    0.15    0.15    0.15    0.15    
0.15    0.15    0.15    0.15    0.15    
0.15    0.15    0.15    0.15    0.15    
0.15    0.15    0.15    0.15    0.15    
0.15    0.15    0.15    0.15    0.15    
0.15    0.15    0.15    0.15    0.15    
0.15    0.15    0.15    0.15    0.15    
0.15    0.15    0.15    0.15    0.15    
0.15    0.1    0.1    0.1    0.1    
0.1    0.1    0.1    0.1    0.1    
0.1    0.1    0.1    0.1    0.1    
0.1    0.1    0.1    0.1    0.1    
0.1    0.1    0.1    0.1    0.1    
0.1    0.1    0.1    0.1    0.1    
0.1    0.1    0.1    0.1    0.1    
0.1    0.1    0.1    0.1    0.1    
0.1    0.1    0.1    0.05    0.05    
0.05    0.05    0.05    0.05    0.05    
0.05    0.05    0.05    0.05    0.05    
0.05    0.05    0.05    0.05    0.05    
0.05    0.05    0.05    0.05    0.05    
0.05    0.05    0.05    0.05    0.05    
0.05    0.05    0.05    0.05    0.05    
0.05    0.05    0.05    0.05    0.05    
0.05    0.05    0.05    0.05    0.05    
0.0    2.7755575616e-17    0.0    0.0    0.0    
0.0    0.0    0.0    -2.7755575616e-17    0.0    
0.0    0.0    0.0    0.0    -2.7755575616e-17    
0.0    0.0    0.0    0.0    -2.7755575616e-17    
-2.7755575616e-17    0.0    0.0    0.0    0.0    
0.0    -2.7755575616e-17    0.0    0.0    0.0    
0.0    0.0    -2.7755575616e-17    0.0    0.0    
0.0    0.0    0.0    -2.7755575616e-17    0.0    
0.0    0.0    
-0.2    -0.25    -0.25    -0.2    -0.15    
-0.15    -0.1    -0.1    -0.05    -0.05    
1.2490009027e-17    1.3877787808e-17    -0.25    -0.25    -0.2    
-0.2    -0.15    -0.15    -0.1    -0.1    
-0.05    -0.05    -2.4980018054e-17    -2.7755575616e-17    -0.25    
-0.25    -0.2    -0.2    -0.15    -0.15    
-0.1    -0.1    -0.05    -0.05    0.0    
0.0    -0.25    -0.25    -0.2    -0.2    
-0.15    -0.15    -0.1    -0.1    -0.05    
-0.05    1.2490009027e-17    1.3877787808e-17    -0.25    -0.25    
-0.2    -0.2    -0.15    -0.15    -0.1    
-0.1    -0.05    -0.05    0.0    0.0    
-0.2    -0.25    -0.15    -0.1    -0.05    
1.1102230246e-17    -0.25    -0.2    -0.15    -0.1    
-0.05    -2.2204460493e-17    -0.25    -0.2    -0.15    
-0.1    -0.05    0.0    -0.25    -0.2    
-0.15    -0.1    -0.05    1.1102230246e-17    -0.25    
-0.2    -0.15    -0.1    -0.05    0.0    
-0.2    -0.25    -0.2    -0.25    -0.15    
-0.15    -0.1    -0.1    -0.05    -0.05    
9.7144514655e-18    4.8572257327e-18    -0.25    -0.2    -0.15    
-0.1    -0.05    -1.9428902931e-17    -0.25    -0.2    
-0.15    -0.1    -0.05    0.0    -0.25    
-0.2    -0.15    -0.1    -0.05    9.7144514655e-18    
-0.25    -0.2    -0.15    -0.1    -0.05    
0.0    -0.2    -0.25    -0.15    -0.1    
-0.05    4.1633363423e-18    -0.25    -0.2    -0.15    
-0.1    -0.05    8.3266726847e-18    -0.25    -0.2    
-0.15    -0.1    -0.05    -1.6653345369e-17    -0.25    
-0.2    -0.15    -0.1    -0.05    0.0    
-0.25    -0.2    -0.15    -0.1    -0.05    
8.3266726847e-18    -0.25    -0.2    -0.15    -0.1    
-0.05    0.0    -0.2    -0.25    -0.15    
-0.1    -0.05    3.469446952e-18    -0.25    -0.2    
-0.15    -0.1    -0.05    6.9388939039e-18    -0.25    
-0.2    -0.15    -0.1    -0.05    -1.3877787808e-17    
-0.25    -0.2    -0.15    -0.1    -0.05    
0.0    -0.25    -0.2    -0.15    -0.1    
-0.05    6.9388939039e-18    -0.25    -0.2    -0.15    
-0.1    -0.05    0.0    -0.2    -0.25    
-0.15    -0.1    -0.05    2.7755575616e-18    -0.25    
-0.2    -0.15    -0.1    -0.05    5.5511151231e-18    
-0.25    -0.2    -0.15    -0.1    -0.05    
-1.1102230246e-17    -0.25    -0.2    -0.15    -0.1    
-0.05    0.0    -0.25    -0.2    -0.15    
-0.1    -0.05    5.5511151231e-18    -0.25    -0.2    
-0.15    -0.1    -0.05    0.0    -0.2    
-0.25    -0.2    -0.25    -0.15    -0.15    
-0.1    -0.1    -0.05    -0.05    2.0816681712e-18    
8.3266726847e-18    -0.25    -0.2    -0.15    -0.1    
-0.05    4.1633363423e-18    -0.25    -0.2    -0.15    
-0.1    -0.05    -8.3266726847e-18    -0.25    -0.2    
-0.15    -0.1    -0.05    0.0    -0.25    
-0.2    -0.15    -0.1    -0.05    4.1633363423e-18    
-0.25    -0.2    -0.15    -0.1    -0.05    
0.0    -0.2    -0.25    -0.15    -0.1    
-0.05    5.5511151231e-18    -0.25    -0.2    -0.15    
-0.1    -0.05    1.3877787808e-18    -0.25    -0.2    
-0.15    -0.1    -0.05    2.7755575616e-18    -0.25    
-0.2    -0.15    -0.1    -0.05    -5.5511151231e-18    
-0.25    -0.2    -0.15    -0.1    -0.05    
0.0    -0.25    -0.2    -0.15    -0.1    
-0.05    2.7755575616e-18    -0.25    -0.2    -0.15    
-0.1    -0.05    0.0    -0.2    -0.25    
-0.15    -0.1    -0.05    2.7755575616e-18    -0.25    
-0.2    -0.15    -0.1    -0.05    6.9388939039e-19    
-0.25    -0.2    -0.15    -0.1    -0.05    
1.3877787808e-18    -0.25    -0.2    -0.15    -0.1    
-0.05    -2.7755575616e-18    -0.25    -0.2    -0.15    
-0.1    -0.05    0.0    -0.25    -0.2    
-0.15    -0.1    -0.05    1.3877787808e-18    -0.25    
-0.2    -0.15    -0.1    -0.05    0.0    
-0.2    -0.25    -0.15    -0.1    -0.05    
0.0    -0.25    -0.2    -0.15    -0.1    
-0.05    0.0    -0.25    -0.2    -0.15    
-0.1    -0.05    0.0    -0.25    -0.2    
-0.15    -0.1    -0.05    0.0    -0.25    
-0.2    -0.15    -0.1    -0.05    0.0    
-0.25    -0.2    -0.15    -0.1    -0.05    
0.0    -0.25    -0.2    -0.15    -0.1    
-0.05    0.0    
0.2    0.2    0.2    0.2    0.2    
0.2    0.2    0.2    0.2    0.2    
0.2    0.2    0.15    0.15    0.15    
0.15    0.15    0.15    0.15    0.15    
0.15    0.15    0.15    0.15    0.1    
0.1    0.1    0.1    0.1    0.1    
0.1    0.1    0.1    0.1    0.1    
0.1    0.05    0.05    0.05    0.05    
0.05    0.05    0.05    0.05    0.05    
0.05    0.05    0.05    0.0    0.0    
0.0    0.0    0.0    0.0    0.0    
0.0    0.0    0.0    0.0    0.0    
0.2    0.2    0.2    0.2    0.2    
0.2    0.15    0.15    0.15    0.15    
0.15    0.15    0.1    0.1    0.1    
0.1    0.1    0.1    0.05    0.05    
0.05    0.05    0.05    0.05    0.0    
0.0    0.0    0.0    0.0    0.0    
0.2    0.2    0.25    0.25    0.2    
0.25    0.2    0.25    0.2    0.25    
0.2    0.25    0.15    0.15    0.15    
0.15    0.15    0.15    0.1    0.1    
0.1    0.1    0.1    0.1    0.05    
0.05    0.05    0.05    0.05    0.05    
0.0    0.0    0.0    0.0    0.0    
0.0    0.25    0.25    0.25    0.25    
0.25    0.25    0.2    0.2    0.2    
0.2    0.2    0.2    0.15    0.15    
0.15    0.15    0.15    0.15    0.1    
0.1    0.1    0.1    0.1    0.1    
0.05    0.05    0.05    0.05    0.05    
0.05    0.0    0.0    0.0    0.0    
0.0    0.0    0.25    0.25    0.25    
0.25    0.25    0.25    0.2    0.2    
0.2    0.2    0.2    0.2    0.15    
0.15    0.15    0.15    0.15    0.15    
0.1    0.1    0.1    0.1    0.1    
0.1    0.05    0.05    0.05    0.05    
0.05    0.05    0.0    0.0    2.4651903288e-32    
0.0    0.0    0.0    0.25    0.25    
0.25    0.25    0.25    0.25    0.2    
0.2    0.2    0.2    0.2    0.2    
0.15    0.15    0.15    0.15    0.15    
0.15    0.1    0.1    0.1    0.1    
0.1    0.1    0.05    0.05    0.05    
0.05    0.05    0.05    0.0    0.0    
0.0    0.0    0.0    0.0    0.25    
0.25    0.3    0.3    0.25    0.3    
0.25    0.3    0.25    0.3    0.25    
0.3    0.2    0.2    0.2    0.2    
0.2    0.2    0.15    0.15    0.15    
0.15    0.15    0.15    0.1    0.1    
0.1    0.1    0.1    0.1    0.05    
0.05    0.05    0.05    0.05    0.05    
0.0    0.0    0.0    0.0    0.0    
0.0    0.3    0.3    0.3    0.3    
0.3    0.3    0.25    0.25    0.25    
0.25    0.25    0.25    0.2    0.2    
0.2    0.2    0.2    0.2    0.15    
0.15    0.15    0.15    0.15    0.15    
0.1    0.1    0.1    0.1    0.1    
0.1    0.05    0.05    0.05    0.05    
0.05    0.05    0.0    0.0    0.0    
0.0    0.0    0.0    0.3    0.3    
0.3    0.3    0.3    0.3    0.25    
0.25    0.25    0.25    0.25    0.25    
0.2    0.2    0.2    0.2    0.2    
0.2    0.15    0.15    0.15    0.15    
0.15    0.15    0.1    0.1    0.1    
0.1    0.1    0.1    0.05    0.05    
0.05    0.05    0.05    0.05    0.0    
0.0    0.0    0.0    0.0    0.0    
0.3    0.3    0.3    0.3    0.3    
0.3    0.25    0.25    0.25    0.25    
0.25    0.25    0.2    0.2    0.2    
0.2    0.2    0.2    0.15    0.15    
0.15    0.15    0.15    0.15    0.1    
0.1    0.1    0.1    0.1    0.1    
0.05    0.05    0.05    0.05    0.05    
0.05    0.0    0.0    0.0    0.0    
0.0    0.0    
397.887358997    398.373345092    398.244541887    395.167375283    397.285041823    
397.722581101    393.72620435    396.528627409    397.077577556    391.942171692    
395.567234335    396.270594308    389.705277711    395.249798578    386.868394743    
398.157784252    394.784615388    397.611904592    393.236684666    396.938750713    
391.326074945    396.098776011    388.9393806    395.039773818    385.926753127    
398.114157988    394.526788633    397.556350007    392.907866065    396.869230507    
390.913766314    396.013000343    388.429312883    394.93534333    385.303602619    
394.397136034    392.742806955    390.707281982    388.174652218    384.993713159    
392.100522687    389.752882848    386.853151484    383.228085164    378.64903202    
391.474554371    388.95276618    385.846868868    381.978270657    377.114189436    
391.05286511    388.415245253    385.173311311    381.145699555    376.098073301    
390.840799546    388.145400756    384.835953994    380.729952796    375.592640544    
389.25640328    386.078435841    382.164743322    377.291268211    371.167433959    
388.404504062    384.990361096    380.797638647    375.595400344    369.088016625    
387.830545209    384.259262107    379.882333894    374.465276379    367.710648583    
387.541882013    383.892198136    379.423823214    373.900817778    367.025300035    
387.510536333    390.373769596    388.090007499    383.972412074    384.566975469    
379.547278961    380.228582512    373.955615603    374.82711764    368.042308189    
386.706668289    382.795688171    377.995553673    372.044667525    364.610389172    
385.651797694    381.449559739    376.30612435    369.951931545    362.048859485    
384.940990053    380.54488907    375.174691703    368.556758143    360.351141553    
384.583469606    380.090622727    374.607812414    367.859736588    359.506082986    
386.12207501    382.040201008    377.031308241    370.823451267    363.071674395    
384.50910437    379.976936064    374.433516194    367.59174495    359.093744365    
383.27890067    378.408498083    372.467370815    365.159779443    356.122341603    
382.449828988    377.354208117    371.150232358    363.53777109    354.151795158    
382.032786651    376.824744668    370.490188102    362.727211937    353.170569476    
384.509104272    379.976935969    374.433516107    367.59174488    359.093744331    
382.707570027    377.674608616    371.538183465    363.995310963    354.675159168    
381.333314133    375.924013144    369.346074493    361.287516692    351.372241096    
380.40703782    374.747055591    367.877164362    359.480849568    349.180654142    
379.941060018    374.155918006    367.140939431    358.577794707    348.08899316    
383.278900532    378.408497956    372.467370708    365.159779369    356.122341594    
381.333314075    375.924013096    369.346074454    361.287516667    351.372241096    
379.848959015    374.034527997    366.982198507    358.370844627    347.819443061    
378.848362227    372.763992163    365.397834766    356.42419644    345.461005437    
378.344960881    372.125790573    364.603632224    355.450979733    344.285907848    
381.449559534    385.651797457    384.940989803    376.306124156    380.544888831    
369.951931389    375.174691491    362.048859407    368.556757984    360.351141504    
382.449828816    377.35420796    371.150232229    363.53777101    354.151795153    
380.40703772    374.747055503    367.877164291    359.480849524    349.180654143    
378.848362176    372.763992116    365.39783473    356.424196415    345.461005428    
377.797582505    371.430381879    363.735824933    354.383664564    342.991034254    
377.268907392    370.760449843    362.902616878    353.363367713    341.7601237    
384.583469359    380.09062249    374.607812211    367.859736452    359.506082965    
382.032786462    376.824744497    370.490187966    362.727211849    353.170569485    
379.941059885    374.155917888    367.140939336    358.577794651    348.088993155    
378.344960784    372.12579049    364.603632155    355.450979681    344.285907829    
377.268907346    370.760449801    362.902616841    353.363367683    341.76012368    
376.727502075    370.074552768    362.049809965    352.319454009    340.501271368    

-0.175    -0.225    -0.225    -0.225    -0.125    
-0.175    -0.175    -0.075    -0.125    -0.125    
-0.025    -0.075    -0.075    -0.025    -0.025    
-0.225    -0.225    -0.175    -0.175    -0.125    
-0.125    -0.075    -0.075    -0.025    -0.025    
-0.225    -0.225    -0.175    -0.175    -0.125    
-0.125    -0.075    -0.075    -0.025    -0.025    
-0.225    -0.175    -0.125    -0.075    -0.025    
-0.225    -0.175    -0.125    -0.075    -0.025    
-0.225    -0.175    -0.125    -0.075    -0.025    
-0.225    -0.175    -0.125    -0.075    -0.025    
-0.225    -0.175    -0.125    -0.075    -0.025    
-0.225    -0.175    -0.125    -0.075    -0.025    
-0.225    -0.175    -0.125    -0.075    -0.025    
-0.225    -0.175    -0.125    -0.075    -0.025    
-0.225    -0.175    -0.125    -0.075    -0.025    
-0.175    -0.225    -0.225    -0.125    -0.175    
-0.075    -0.125    -0.025    -0.075    -0.025    
-0.225    -0.175    -0.125    -0.075    -0.025    
-0.225    -0.175    -0.125    -0.075    -0.025    
-0.225    -0.175    -0.125    -0.075    -0.025    
-0.225    -0.175    -0.125    -0.075    -0.025    
-0.225    -0.175    -0.125    -0.075    -0.025    
-0.225    -0.175    -0.125    -0.075    -0.025    
-0.225    -0.175    -0.125    -0.075    -0.025    
-0.225    -0.175    -0.125    -0.075    -0.025    
-0.225    -0.175    -0.125    -0.075    -0.025    
-0.225    -0.175    -0.125    -0.075    -0.025    
-0.225    -0.175    -0.125    -0.075    -0.025    
-0.225    -0.175    -0.125    -0.075    -0.025    
-0.225    -0.175    -0.125    -0.075    -0.025    
-0.225    -0.175    -0.125    -0.075    -0.025    
-0.225    -0.175    -0.125    -0.075    -0.025    
-0.225    -0.175    -0.125    -0.075    -0.025    
-0.225    -0.175    -0.125    -0.075    -0.025    
-0.225    -0.175    -0.125    -0.075    -0.025    
-0.225    -0.175    -0.125    -0.075    -0.025    
-0.175    -0.225    -0.225    -0.125    -0.175    
-0.075    -0.125    -0.025    -0.075    -0.025    
-0.225    -0.175    -0.125    -0.075    -0.025    
-0.225    -0.175    -0.125    -0.075    -0.025    
-0.225    -0.175    -0.125    -0.075    -0.025    
-0.225    -0.175    -0.125    -0.075    -0.025    
-0.225    -0.175    -0.125    -0.075    -0.025    
-0.225    -0.175    -0.125    -0.075    -0.025    
-0.225    -0.175    -0.125    -0.075    -0.025    
-0.225    -0.175    -0.125    -0.075    -0.025    
-0.225    -0.175    -0.125    -0.075    -0.025    
-0.225    -0.175    -0.125    -0.075    -0.025    
-0.225    -0.175    -0.125    -0.075    -0.025    

1     15     16     4     5     17     18     6     
4     16     15     1     3     14     13     2     
15     13     14     16     27     25     26     28     
13     15     1     2     67     68     61     62     
5     17     18     6     7     19     20     8     
17     15     16     18     29     27     28     30     
15     17     5     1     68     69     63     61     
7     19     20     8     9     21     22     10     
19     17     18     20     31     29     30     32     
17     19     7     5     69     70     64     63     
9     21     22     10     11     23     24     12     
21     19     20     22     33     31     32     34     
19     21     9     7     70     71     65     64     
23     21     22     24     35     33     34     36     
21     23     11     9     71     72     66     65     
27     25     26     28     39     37     38     40     
25     27     15     13     73     74     68     67     
29     27     28     30     41     39     40     42     
27     29     17     15     74     75     69     68     
31     29     30     32     43     41     42     44     
29     31     19     17     75     76     70     69     
33     31     32     34     45     43     44     46     
31     33     21     19     76     77     71     70     
35     33     34     36     47     45     46     48     
33     35     23     21     77     78     72     71     
39     37     38     40     51     49     50     52     
37     39     27     25     79     80     74     73     
41     39     40     42     53     51     52     54     
39     41     29     27     80     81     75     74     
43     41     42     44     55     53     54     56     
41     43     31     29     81     82     76     75     
45     43     44     46     57     55     56     58     
43     45     33     31     82     83     77     76     
47     45     46     48     59     57     58     60     
45     47     35     33     83     84     78     77     
49     51     39     37     85     86     80     79     
51     53     41     39     86     87     81     80     
53     55     43     41     87     88     82     81     
55     57     45     43     88     89     83     82     
57     59     47     45     89     90     84     83     
67     68     61     62     103     104     91     92     
68     69     63     61     104     105     95     91     
69     70     64     63     105     106     97     95     
70     71     65     64     106     107     99     97     
71     72     66     65     107     108     101     99     
73     74     68     67     109     110     104     103     
74     75     69     68     110     111     105     104     
75     76     70     69     111     112     106     105     
76     77     71     70     112     113     107     106     
77     78     72     71     113     114     108     107     
79     80     74     73     115     116     110     109     
80     81     75     74     116     117     111     110     
81     82     76     75     117     118     112     111     
82     83     77     76     118     119     113     112     
83     84     78     77     119     120     114     113     
85     86     80     79     121     122     116     115     
86     87     81     80     122     123     117     116     
87     88     82     81     123     124     118     117     
88     89     83     82     124     125     119     118     
89     90     84     83     125     126     120     119     
103     104     91     92     139     140     134     133     
104     105     95     91     140     141     135     134     
105     106     97     95     141     142     136     135     
106     107     99     97     142     143     137     136     
107     108     101     99     143     144     138     137     
109     110     104     103     145     146     140     139     
110     111     105     104     146     147     141     140     
111     112     106     105     147     148     142     141     
112     113     107     106     148     149     143     142     
113     114     108     107     149     150     144     143     
115     116     110     109     151     152     146     145     
116     117     111     110     152     153     147     146     
117     118     112     111     153     154     148     147     
118     119     113     112     154     155     149     148     
119     120     114     113     155     156     150     149     
121     122     116     115     157     158     152     151     
122     123     117     116     158     159     153     152     
123     124     118     117     159     160     154     153     
124     125     119     118     160     161     155     154     
125     126     120     119     161     162     156     155     
127     134     91     93     129     135     95     96     
93     91     134     127     94     92     133     128     
133     134     127     128     169     170     163     164     
129     135     95     96     130     136     97     98     
134     135     129     127     170     171     165     163     
130     136     97     98     131     137     99     100     
135     136     130     129     171     172     166     165     
131     137     99     100     132     138     101     102     
136     137     131     130     172     173     167     166     
137     138     132     131     173     174     168     167     
139     140     134     133     175     176     170     169     
140     141     135     134     176     177     171     170     
141     142     136     135     177     178     172     171     
142     143     137     136     178     179     173     172     
143     144     138     137     179     180     174     173     
145     146     140     139     181     182     176     175     
146     147     141     140     182     183     177     176     
147     148     142     141     183     184     178     177     
148     149     143     142     184     185     179     178     
149     150     144     143     185     186     180     179     
151     152     146     145     187     188     182     181     
152     153     147     146     188     189     183     182     
153     154     148     147     189     190     184     183     
154     155     149     148     190     191     185     184     
155     156     150     149     191     192     186     185     
157     158     152     151     193     194     188     187     
158     159     153     152     194     195     189     188     
159     160     154     153     195     196     190     189     
160     161     155     154     196     197     191     190     
161     162     156     155     197     198     192     191     
169     170     163     164     205     206     199     200     
170     171     165     163     206     207     201     199     
171     172     166     165     207     208     202     201     
172     173     167     166     208     209     203     202     
173     174     168     167     209     210     204     203     
175     176     170     169     211     212     206     205     
176     177     171     170     212     213     207     206     
177     178     172     171     213     214     208     207     
178     179     173     172     214     215     209     208     
179     180     174     173     215     216     210     209     
181     182     176     175     217     218     212     211     
182     183     177     176     218     219     213     212     
183     184     178     177     219     220     214     213     
184     185     179     178     220     221     215     214     
185     186     180     179     221     222     216     215     
187     188     182     181     223     224     218     217     
188     189     183     182     224     225     219     218     
189     190     184     183     225     226     220     219     
190     191     185     184     226     227     221     220     
191     192     186     185     227     228     222     221     
193     194     188     187     229     230     224     223     
194     195     189     188     230     231     225     224     
195     196     190     189     231     232     226     225     
196     197     191     190     232     233     227     226     
197     198     192     191     233     234     228     227     
205     206     199     200     247     248     235     236     
206     207     201     199     248     249     239     235     
207     208     202     201     249     250     241     239     
208     209     203     202     250     251     243     241     
209     210     204     203     251     252     245     243     
211     212     206     205     253     254     248     247     
212     213     207     206     254     255     249     248     
213     214     208     207     255     256     250     249     
214     215     209     208     256     257     251     250     
215     216     210     209     257     258     252     251     
217     218     212     211     259     260     254     253     
218     219     213     212     260     261     255     254     
219     220     214     213     261     262     256     255     
220     221     215     214     262     263     257     256     
221     222     216     215     263     264     258     257     
223     224     218     217     265     266     260     259     
224     225     219     218     266     267     261     260     
225     226     220     219     267     268     262     261     
226     227     221     220     268     269     263     262     
227     228     222     221     269     270     264     263     
229     230     224     223     271     272     266     265     
230     231     225     224     272     273     267     266     
231     232     226     225     273     274     268     267     
232     233     227     226     274     275     269     268     
233     234     228     227     275     276     270     269     
247     248     235     236     289     290     284     283     
248     249     239     235     290     291     285     284     
249     250     241     239     291     292     286     285     
250     251     243     241     292     293     287     286     
251     252     245     243     293     294     288     287     
253     254     248     247     295     296     290     289     
254     255     249     248     296     297     291     290     
255     256     250     249     297     298     292     291     
256     257     251     250     298     299     293     292     
257     258     252     251     299     300     294     293     
259     260     254     253     301     302     296     295     
260     261     255     254     302     303     297     296     
261     262     256     255     303     304     298     297     
262     263     257     256     304     305     299     298     
263     264     258     257     305     306     300     299     
265     266     260     259     307     308     302     301     
266     267     261     260     308     309     303     302     
267     268     262     261     309     310     304     303     
268     269     263     262     310     311     305     304     
269     270     264     263     311     312     306     305     
271     272     266     265     313     314     308     307     
272     273     267     266     314     315     309     308     
273     274     268     267     315     316     310     309     
274     275     269     268     316     317     311     310     
275     276     270     269     317     318     312     311     
277     284     235     237     279     285     239     240     
237     235     284     277     238     236     283     278     
283     284     277     278     325     326     319     320     
279     285     239     240     280     286     241     242     
284     285     279     277     326     327     321     319     
280     286     241     242     281     287     243     244     
285     286     280     279     327     328     322     321     
281     287     243     244     282     288     245     246     
286     287     281     280     328     329     323     322     
287     288     282     281     329     330     324     323     
289     290     284     283     331     332     326     325     
290     291     285     284     332     333     327     326     
291     292     286     285     333     334     328     327     
292     293     287     286     334     335     329     328     
293     294     288     287     335     336     330     329     
295     296     290     289     337     338     332     331     
296     297     291     290     338     339     333     332     