Title = " tecplot file for 2D Cavity problem " 
variables = "x", "y", "z", "velX", "cellCentroidY" 
Zone T = "nmesh0" N = 402 E = 250 DATAPACKING = BLOCK, VARLOCATION = ([4-5]=CELLCENTERED), ZONETYPE=FEBRICK
0.0    0.0    0.0    0.0    0.0    
0.0    -2.7755575616e-17    0.0    0.0    0.0    
0.0    0.0    0.0    -2.7755575616e-17    0.0    
0.0    0.0    2.7755575616e-17    2.7755575616e-17    0.0    
0.0    0.0    -2.7755575616e-17    0.0    0.0    
2.7755575616e-17    0.0    0.0    -2.7755575616e-17    -2.7755575616e-17    
0.0    0.0    0.0    0.0    0.0    
0.0    0.0    -2.7755575616e-17    0.0    0.0    
2.7755575616e-17    0.0    -2.7755575616e-17    0.0    0.0    
0.0    0.0    0.0    -2.7755575616e-17    0.0    
0.0    2.7755575616e-17    0.0    -2.7755575616e-17    0.0    
0.0    0.0    0.0    0.0    -1.3877787808e-17    
0.0    6.9388939039e-18    2.0816681712e-17    0.0    -2.0816681712e-17    
-1.0408340856e-17    0.0    -0.05    -0.05    -0.05    
-0.05    -0.05    -0.05    -0.05    -0.05    
-0.05    -0.05    -0.05    -0.05    -0.05    
-0.05    -0.05    -0.05    -0.05    -0.05    
-0.05    -0.05    -0.05    -0.05    -0.05    
-0.05    -0.05    -0.05    -0.05    -0.05    
-0.05    -0.05    -0.05    -0.05    -0.05    
-0.05    -0.05    -0.05    -0.05    -0.05    
-0.05    -0.05    -0.05    -0.05    -0.05    
-0.05    -0.05    -0.05    -0.05    -0.05    
-0.05    -0.05    -0.05    -0.05    -0.05    
-0.05    -0.05    -0.05    -0.05    -0.05    
-0.05    -0.05    -0.05    -0.05    -0.05    
-0.05    -0.05    -0.05    -0.05    -0.1    
-0.1    -0.1    -0.1    -0.1    -0.1    
-0.1    -0.1    -0.1    -0.1    -0.1    
-0.1    -0.1    -0.1    -0.1    -0.1    
-0.1    -0.1    -0.1    -0.1    -0.1    
-0.1    -0.1    -0.1    -0.1    -0.1    
-0.1    -0.1    -0.1    -0.1    -0.1    
-0.1    -0.1    -0.1    -0.1    -0.1    
-0.1    -0.1    -0.1    -0.1    -0.1    
-0.1    -0.1    -0.1    -0.1    -0.1    
-0.1    -0.1    -0.1    -0.1    -0.1    
-0.1    -0.1    -0.1    -0.1    -0.1    
-0.1    -0.1    -0.1    -0.1    -0.1    
-0.1    -0.1    -0.1    -0.1    -0.1    
-0.1    -0.15    -0.15    -0.15    -0.15    
-0.15    -0.15    -0.15    -0.15    -0.15    
-0.15    -0.15    -0.15    -0.15    -0.15    
-0.15    -0.15    -0.15    -0.15    -0.15    
-0.15    -0.15    -0.15    -0.15    -0.15    
-0.15    -0.15    -0.15    -0.15    -0.15    
-0.15    -0.15    -0.15    -0.15    -0.15    
-0.15    -0.15    -0.15    -0.15    -0.15    
-0.15    -0.15    -0.15    -0.15    -0.15    
-0.15    -0.15    -0.15    -0.15    -0.15    
-0.15    -0.15    -0.15    -0.15    -0.15    
-0.15    -0.15    -0.15    -0.15    -0.15    
-0.15    -0.15    -0.15    -0.15    -0.15    
-0.15    -0.15    -0.15    -0.2    -0.2    
-0.2    -0.2    -0.2    -0.2    -0.2    
-0.2    -0.2    -0.2    -0.2    -0.2    
-0.2    -0.2    -0.2    -0.2    -0.2    
-0.2    -0.2    -0.2    -0.2    -0.2    
-0.2    -0.2    -0.2    -0.2    -0.2    
-0.2    -0.2    -0.2    -0.2    -0.2    
-0.2    -0.2    -0.2    -0.2    -0.2    
-0.2    -0.2    -0.2    -0.2    -0.2    
-0.2    -0.2    -0.2    -0.2    -0.2    
-0.2    -0.2    -0.2    -0.2    -0.2    
-0.2    -0.2    -0.2    -0.2    -0.2    
-0.2    -0.2    -0.2    -0.2    -0.2    
-0.2    -0.2    -0.2    -0.2    -0.2    
-0.25    -0.25    -0.25    -0.25    -0.25    
-0.25    -0.25    -0.25    -0.25    -0.25    
-0.25    -0.25    -0.25    -0.25    -0.25    
-0.25    -0.25    -0.25    -0.25    -0.25    
-0.25    -0.25    -0.25    -0.25    -0.25    
-0.25    -0.25    -0.25    -0.25    -0.25    
-0.25    -0.25    -0.25    -0.25    -0.25    
-0.25    -0.25    -0.25    -0.25    -0.25    
-0.25    -0.25    -0.25    -0.25    -0.25    
-0.25    -0.25    -0.25    -0.25    -0.25    
-0.25    -0.25    -0.25    -0.25    -0.25    
-0.25    -0.25    -0.25    -0.25    -0.25    
-0.25    -0.25    -0.25    -0.25    -0.25    
-0.25    -0.25    
0.0    0.05    0.05    1.2325951644e-32    0.1    
0.1    0.15    0.15    0.2    0.2    
0.0    0.05    0.1    0.15    0.2    
0.25    0.25    0.3    0.3    0.0    
0.05    0.1    0.15    0.2    0.25    
0.3    0.35    0.35    0.4    0.4    
0.45    0.45    0.5    0.5    0.0    
0.05    0.1    0.15    0.2    0.25    
0.3    0.35    0.4    0.45    0.5    
0.0    0.05    0.1    0.15    0.2    
0.25    0.3    0.35    0.4    0.45    
0.5    0.0    0.05    0.1    0.15    
0.2    0.25    0.3    0.35    0.4    
0.45    0.5    0.05    2.7755575616e-18    0.1    
0.15    0.2    0.0    0.05    0.1    
0.15    0.2    0.25    0.3    0.0    
0.05    0.1    0.15    0.2    0.25    
0.3    0.35    0.4    0.45    0.5    
0.0    0.05    0.1    0.15    0.2    
0.25    0.3    0.35    0.4    0.45    
0.5    0.0    0.05    0.1    0.15    
0.2    0.25    0.3    0.35    0.4    
0.45    0.5    0.0    0.05    0.1    
0.15    0.2    0.25    0.3    0.35    
0.4    0.45    0.5    0.0    0.05    
0.1    0.15    0.2    0.25    0.3    
0.35    0.4    0.45    0.5    0.05    
5.5511151231e-18    0.1    0.15    0.2    0.0    
0.05    0.1    0.15    0.2    0.25    
0.3    0.0    0.05    0.1    0.15    
0.2    0.25    0.3    0.35    0.4    
0.45    0.5    0.0    0.05    0.1    
0.15    0.2    0.25    0.3    0.35    
0.4    0.45    0.5    0.0    0.05    
0.1    0.15    0.2    0.25    0.3    
0.35    0.4    0.45    0.5    0.0    
0.05    0.1    0.15    0.2    0.25    
0.3    0.35    0.4    0.45    0.5    
0.0    0.05    0.1    0.15    0.2    
0.25    0.3    0.35    0.4    0.45    
0.5    0.05    8.3266726847e-18    0.1    0.15    
0.2    -2.7755575616e-17    0.05    0.1    0.15    
0.2    0.25    0.3    -2.7755575616e-17    0.05    
0.1    0.15    0.2    0.25    0.3    
0.35    0.4    0.45    0.5    0.0    
0.05    0.1    0.15    0.2    0.25    
0.3    0.35    0.4    0.45    0.5    
0.0    0.05    0.1    0.15    0.2    
0.25    0.3    0.35    0.4    0.45    
0.5    -2.7755575616e-17    0.05    0.1    0.15    
0.2    0.25    0.3    0.35    0.4    
0.45    0.5    -2.7755575616e-17    0.05    0.1    
0.15    0.2    0.25    0.3    0.35    
0.4    0.45    0.5    0.05    1.1102230246e-17    
0.1    0.15    0.2    0.0    0.05    
0.1    0.15    0.2    0.25    0.3    
0.0    0.05    0.1    0.15    0.2    
0.25    0.3    0.35    0.4    0.45    
0.5    0.0    0.05    0.1    0.15    
0.2    0.25    0.3    0.35    0.4    
0.45    0.5    0.0    0.05    0.1    
0.15    0.2    0.25    0.3    0.35    
0.4    0.45    0.5    0.0    0.05    
0.1    0.15    0.2    0.25    0.3    
0.35    0.4    0.45    0.5    0.0    
0.05    0.1    0.15    0.2    0.25    
0.3    0.35    0.4    0.45    0.5    
0.05    1.3877787808e-17    0.1    0.15    0.2    
0.0    0.05    0.1    0.15    0.2    
0.25    0.3    0.0    0.05    0.1    
0.15    0.2    0.25    0.3    0.35    
0.4    0.45    0.5    0.0    0.05    
0.1    0.15    0.2    0.25    0.3    
0.35    0.4    0.45    0.5    0.0    
0.05    0.1    0.15    0.2    0.25    
0.3    0.35    0.4    0.45    0.5    
0.0    0.05    0.1    0.15    0.2    
0.25    0.3    0.35    0.4    0.45    
0.5    0.0    0.05    0.1    0.15    
0.2    0.25    0.3    0.35    0.4    
0.45    0.5    
-0.25    -0.25    -0.2    -0.2    -0.25    
-0.2    -0.25    -0.2    -0.25    -0.2    
-0.3    -0.3    -0.3    -0.3    -0.3    
-0.3    -0.25    -0.3    -0.25    -0.35    
-0.35    -0.35    -0.35    -0.35    -0.35    
-0.35    -0.35    -0.3    -0.35    -0.3    
-0.35    -0.3    -0.35    -0.3    -0.4    
-0.4    -0.4    -0.4    -0.4    -0.4    
-0.4    -0.4    -0.4    -0.4    -0.4    
-0.45    -0.45    -0.45    -0.45    -0.45    
-0.45    -0.45    -0.45    -0.45    -0.45    
-0.45    -0.5    -0.5    -0.5    -0.5    
-0.5    -0.5    -0.5    -0.5    -0.5    
-0.5    -0.5    -0.2    -0.2    -0.2    
-0.2    -0.2    -0.25    -0.25    -0.25    
-0.25    -0.25    -0.25    -0.25    -0.3    
-0.3    -0.3    -0.3    -0.3    -0.3    
-0.3    -0.3    -0.3    -0.3    -0.3    
-0.35    -0.35    -0.35    -0.35    -0.35    
-0.35    -0.35    -0.35    -0.35    -0.35    
-0.35    -0.4    -0.4    -0.4    -0.4    
-0.4    -0.4    -0.4    -0.4    -0.4    
-0.4    -0.4    -0.45    -0.45    -0.45    
-0.45    -0.45    -0.45    -0.45    -0.45    
-0.45    -0.45    -0.45    -0.5    -0.5    
-0.5    -0.5    -0.5    -0.5    -0.5    
-0.5    -0.5    -0.5    -0.5    -0.2    
-0.2    -0.2    -0.2    -0.2    -0.25    
-0.25    -0.25    -0.25    -0.25    -0.25    
-0.25    -0.3    -0.3    -0.3    -0.3    
-0.3    -0.3    -0.3    -0.3    -0.3    
-0.3    -0.3    -0.35    -0.35    -0.35    
-0.35    -0.35    -0.35    -0.35    -0.35    
-0.35    -0.35    -0.35    -0.4    -0.4    
-0.4    -0.4    -0.4    -0.4    -0.4    
-0.4    -0.4    -0.4    -0.4    -0.45    
-0.45    -0.45    -0.45    -0.45    -0.45    
-0.45    -0.45    -0.45    -0.45    -0.45    
-0.5    -0.5    -0.5    -0.5    -0.5    
-0.5    -0.5    -0.5    -0.5    -0.5    
-0.5    -0.2    -0.2    -0.2    -0.2    
-0.2    -0.25    -0.25    -0.25    -0.25    
-0.25    -0.25    -0.25    -0.3    -0.3    
-0.3    -0.3    -0.3    -0.3    -0.3    
-0.3    -0.3    -0.3    -0.3    -0.35    
-0.35    -0.35    -0.35    -0.35    -0.35    
-0.35    -0.35    -0.35    -0.35    -0.35    
-0.4    -0.4    -0.4    -0.4    -0.4    
-0.4    -0.4    -0.4    -0.4    -0.4    
-0.4    -0.45    -0.45    -0.45    -0.45    
-0.45    -0.45    -0.45    -0.45    -0.45    
-0.45    -0.45    -0.5    -0.5    -0.5    
-0.5    -0.5    -0.5    -0.5    -0.5    
-0.5    -0.5    -0.5    -0.2    -0.2    
-0.2    -0.2    -0.2    -0.25    -0.25    
-0.25    -0.25    -0.25    -0.25    -0.25    
-0.3    -0.3    -0.3    -0.3    -0.3    
-0.3    -0.3    -0.3    -0.3    -0.3    
-0.3    -0.35    -0.35    -0.35    -0.35    
-0.35    -0.35    -0.35    -0.35    -0.35    
-0.35    -0.35    -0.4    -0.4    -0.4    
-0.4    -0.4    -0.4    -0.4    -0.4    
-0.4    -0.4    -0.4    -0.45    -0.45    
-0.45    -0.45    -0.45    -0.45    -0.45    
-0.45    -0.45    -0.45    -0.45    -0.5    
-0.5    -0.5    -0.5    -0.5    -0.5    
-0.5    -0.5    -0.5    -0.5    -0.5    
-0.2    -0.2    -0.2    -0.2    -0.2    
-0.25    -0.25    -0.25    -0.25    -0.25    
-0.25    -0.25    -0.3    -0.3    -0.3    
-0.3    -0.3    -0.3    -0.3    -0.3    
-0.3    -0.3    -0.3    -0.35    -0.35    
-0.35    -0.35    -0.35    -0.35    -0.35    
-0.35    -0.35    -0.35    -0.35    -0.4    
-0.4    -0.4    -0.4    -0.4    -0.4    
-0.4    -0.4    -0.4    -0.4    -0.4    
-0.45    -0.45    -0.45    -0.45    -0.45    
-0.45    -0.45    -0.45    -0.45    -0.45    
-0.45    -0.5    -0.5    -0.5    -0.5    
-0.5    -0.5    -0.5    -0.5    -0.5    
-0.5    -0.5    
341.378765013    326.821253649    308.868237698    286.78828313    349.123668161    
336.184476602    320.029414313    299.839243994    274.608974511    243.144259126    
358.416310822    347.580338322    333.869412631    316.421078143    294.074178686    
265.260834645    227.9059603    179.467810237    117.518883492    41.7466766165    
369.11616377    360.887880917    350.340051177    336.666631189    318.681343568    
294.573488734    261.504389724    215.043828605    148.852203482    56.6802128844    
380.962327315    375.802197401    369.115610381    360.306235062    348.424046586    
331.841919047    307.54682606    269.559460524    205.634585099    92.6142559642    
393.565572712    391.804869446    389.508743722    386.452614416    382.256740778    
376.200619947    366.693450496    349.520294717    311.181340385    200.639247436    
342.54829339    328.189824015    310.433239865    288.525153553    350.13270536    
337.367708746    321.385700772    301.348470003    276.223067043    244.778905028    
359.236083796    348.543610728    334.976181245    317.655924274    295.398662688    
266.606286507    229.170180933    180.521050229    118.224386982    41.9958990887    
369.72165923    361.600653985    351.160720817    337.584448047    319.668372724    
295.578956753    262.451844976    215.835279094    149.383507351    56.8681412502    
381.333989539    376.240298994    369.620824585    360.872272782    349.033994526    
332.464613961    308.134910533    270.05176815    205.965665147    92.7314903687    
393.690896198    391.952702866    389.679368103    386.643966951    382.463163738    
376.411609381    366.892962261    349.687516906    311.293915061    200.679135706    
344.907630274    330.966321245    313.630369287    292.103227993    352.169336652    
339.769935196    324.159190587    304.461730532    279.587018601    248.225695076    
360.891568091    350.50069834    337.24171828    320.206705546    298.164146949    
269.450179069    231.878083039    182.807174103    119.77342527    42.5470731962    
370.944991004    363.049753264    352.842165876    339.482766516    321.732830783    
297.709133631    264.487352853    217.559675283    150.555368167    57.2858790628    
382.085152887    377.131425618    370.656676446    362.044167537    350.311497378    
333.786293537    309.401447793    271.127776702    206.698724855    92.9932345133    
393.944234469    392.253487328    390.029338605    387.040349618    382.895834537    
376.859905762    367.32324851    350.053678157    311.54374728    200.768432784    
348.491156992    335.222082708    318.586626092    297.727064363    355.265321669    
343.456355746    328.46568954    309.365770559    284.977606429    253.859540533    
363.410282192    353.507604505    340.765368077    324.233946727    302.609485046    
274.117729261    236.425987239    186.738634092    122.494630108    43.5292344783    
372.807623135    365.278584774    355.461359931    342.486281306    325.061067495    
301.219188787    267.923932417    220.5451008    152.630997186    58.0373363143    
383.229523576    378.503184798    372.272136451    363.901442481    352.375863348    
335.971162696    311.549104619    273.001365972    208.006557318    93.468114522    
394.3303063    392.716709743    390.575488735    387.669139694    383.59592526    
377.602354368    368.054745594    350.693457696    311.991480105    200.93134477    
353.334490058    341.044133839    325.471146173    305.687839019    359.454409474    
348.507500983    334.460826252    316.328585856    292.816954295    262.288474899    
366.822141887    357.634337924    345.681889472    329.970069825    309.10241345    
281.141994933    243.50748465    193.087698243    127.044891842    45.2148436263    
375.333325277    368.34198302    359.123623094    346.777104681    329.942755693    
306.532107217    273.316860225    225.415999864    156.14699041    59.3471289536    
384.782479604    380.390728635    374.534666308    366.561066542    355.414084777    
339.294171509    314.94197324    276.086198695    210.248661269    94.308328736    
394.854441989    393.354501039    391.34109665    388.570771759    384.628284874    
378.734741263    369.215053969    351.752934038    312.765253665    201.222730749    

0.025    0.075    0.125    0.175    0.025    
0.075    0.125    0.175    0.225    0.275    
0.025    0.075    0.125    0.175    0.225    
0.275    0.325    0.375    0.425    0.475    
0.025    0.075    0.125    0.175    0.225    
0.275    0.325    0.375    0.425    0.475    
0.025    0.075    0.125    0.175    0.225    
0.275    0.325    0.375    0.425    0.475    
0.025    0.075    0.125    0.175    0.225    
0.275    0.325    0.375    0.425    0.475    
0.025    0.075    0.125    0.175    0.025    
0.075    0.125    0.175    0.225    0.275    
0.025    0.075    0.125    0.175    0.225    
0.275    0.325    0.375    0.425    0.475    
0.025    0.075    0.125    0.175    0.225    
0.275    0.325    0.375    0.425    0.475    
0.025    0.075    0.125    0.175    0.225    
0.275    0.325    0.375    0.425    0.475    
0.025    0.075    0.125    0.175    0.225    
0.275    0.325    0.375    0.425    0.475    
0.025    0.075    0.125    0.175    0.025    
0.075    0.125    0.175    0.225    0.275    
0.025    0.075    0.125    0.175    0.225    
0.275    0.325    0.375    0.425    0.475    
0.025    0.075    0.125    0.175    0.225    
0.275    0.325    0.375    0.425    0.475    
0.025    0.075    0.125    0.175    0.225    
0.275    0.325    0.375    0.425    0.475    
0.025    0.075    0.125    0.175    0.225    
0.275    0.325    0.375    0.425    0.475    
0.025    0.075    0.125    0.175    0.025    
0.075    0.125    0.175    0.225    0.275    
0.025    0.075    0.125    0.175    0.225    
0.275    0.325    0.375    0.425    0.475    
0.025    0.075    0.125    0.175    0.225    
0.275    0.325    0.375    0.425    0.475    
0.025    0.075    0.125    0.175    0.225    
0.275    0.325    0.375    0.425    0.475    
0.025    0.075    0.125    0.175    0.225    
0.275    0.325    0.375    0.425    0.475    
0.025    0.075    0.125    0.175    0.025    
0.075    0.125    0.175    0.225    0.275    
0.025    0.075    0.125    0.175    0.225    
0.275    0.325    0.375    0.425    0.475    
0.025    0.075    0.125    0.175    0.225    
0.275    0.325    0.375    0.425    0.475    
0.025    0.075    0.125    0.175    0.225    
0.275    0.325    0.375    0.425    0.475    
0.025    0.075    0.125    0.175    0.225    
0.275    0.325    0.375    0.425    0.475    

3     2     74     68     4     1     73     69     
68     74     2     3     70     75     5     6     
70     75     5     6     71     76     7     8     
71     76     7     8     72     77     9     10     
74     73     1     2     81     80     11     12     
75     74     2     5     82     81     12     13     
76     75     5     7     83     82     13     14     
77     76     7     9     84     83     14     15     
77     84     15     9     78     85     16     17     
78     85     16     17     79     86     18     19     
81     80     11     12     92     91     20     21     
82     81     12     13     93     92     21     22     
83     82     13     14     94     93     22     23     
84     83     14     15     95     94     23     24     
85     84     15     16     96     95     24     25     
86     85     16     18     97     96     25     26     
86     97     26     18     87     98     27     28     
87     98     27     28     88     99     29     30     
88     99     29     30     89     100     31     32     
89     100     31     32     90     101     33     34     
92     91     20     21     103     102     35     36     
93     92     21     22     104     103     36     37     
94     93     22     23     105     104     37     38     
95     94     23     24     106     105     38     39     
96     95     24     25     107     106     39     40     
97     96     25     26     108     107     40     41     
98     97     26     27     109     108     41     42     
99     98     27     29     110     109     42     43     
100     99     29     31     111     110     43     44     
101     100     31     33     112     111     44     45     
103     102     35     36     114     113     46     47     
104     103     36     37     115     114     47     48     
105     104     37     38     116     115     48     49     
106     105     38     39     117     116     49     50     
107     106     39     40     118     117     50     51     
108     107     40     41     119     118     51     52     
109     108     41     42     120     119     52     53     
110     109     42     43     121     120     53     54     
111     110     43     44     122     121     54     55     
112     111     44     45     123     122     55     56     
114     113     46     47     125     124     57     58     
115     114     47     48     126     125     58     59     
116     115     48     49     127     126     59     60     
117     116     49     50     128     127     60     61     
118     117     50     51     129     128     61     62     
119     118     51     52     130     129     62     63     
120     119     52     53     131     130     63     64     
121     120     53     54     132     131     64     65     
122     121     54     55     133     132     65     66     
123     122     55     56     134     133     66     67     
73     74     68     69     140     141     135     136     
74     75     70     68     141     142     137     135     
75     76     71     70     142     143     138     137     
76     77     72     71     143     144     139     138     
80     81     74     73     147     148     141     140     
81     82     75     74     148     149     142     141     
82     83     76     75     149     150     143     142     
83     84     77     76     150     151     144     143     
84     85     78     77     151     152     145     144     
85     86     79     78     152     153     146     145     
91     92     81     80     158     159     148     147     
92     93     82     81     159     160     149     148     
93     94     83     82     160     161     150     149     
94     95     84     83     161     162     151     150     
95     96     85     84     162     163     152     151     
96     97     86     85     163     164     153     152     
97     98     87     86     164     165     154     153     
98     99     88     87     165     166     155     154     
99     100     89     88     166     167     156     155     
100     101     90     89     167     168     157     156     
102     103     92     91     169     170     159     158     
103     104     93     92     170     171     160     159     
104     105     94     93     171     172     161     160     
105     106     95     94     172     173     162     161     
106     107     96     95     173     174     163     162     
107     108     97     96     174     175     164     163     
108     109     98     97     175     176     165     164     
109     110     99     98     176     177     166     165     
110     111     100     99     177     178     167     166     
111     112     101     100     178     179     168     167     
113     114     103     102     180     181     170     169     
114     115     104     103     181     182     171     170     
115     116     105     104     182     183     172     171     
116     117     106     105     183     184     173     172     
117     118     107     106     184     185     174     173     
118     119     108     107     185     186     175     174     
119     120     109     108     186     187     176     175     
120     121     110     109     187     188     177     176     
121     122     111     110     188     189     178     177     
122     123     112     111     189     190     179     178     
124     125     114     113     191     192     181     180     
125     126     115     114     192     193     182     181     
126     127     116     115     193     194     183     182     
127     128     117     116     194     195     184     183     
128     129     118     117     195     196     185     184     
129     130     119     118     196     197     186     185     
130     131     120     119     197     198     187     186     
131     132     121     120     198     199     188     187     
132     133     122     121     199     200     189     188     
133     134     123     122     200     201     190     189     
140     141     135     136     207     208     202     203     
141     142     137     135     208     209     204     202     
142     143     138     137     209     210     205     204     
143     144     139     138     210     211     206     205     
147     148     141     140     214     215     208     207     
148     149     142     141     215     216     209     208     
149     150     143     142     216     217     210     209     
150     151     144     143     217     218     211     210     
151     152     145     144     218     219     212     211     
152     153     146     145     219     220     213     212     
158     159     148     147     225     226     215     214     
159     160     149     148     226     227     216     215     
160     161     150     149     227     228     217     216     
161     162     151     150     228     229     218     217     
162     163     152     151     229     230     219     218     
163     164     153     152     230     231     220     219     
164     165     154     153     231     232     221     220     
165     166     155     154     232     233     222     221     
166     167     156     155     233     234     223     222     
167     168     157     156     234     235     224     223     
169     170     159     158     236     237     226     225     
170     171     160     159     237     238     227     226     
171     172     161     160     238     239     228     227     
172     173     162     161     239     240     229     228     
173     174     163     162     240     241     230     229     
174     175     164     163     241     242     231     230     
175     176     165     164     242     243     232     231     
176     177     166     165     243     244     233     232     
177     178     167     166     244     245     234     233     
178     179     168     167     245     246     235     234     
180     181     170     169     247     248     237     236     
181     182     171     170     248     249     238     237     
182     183     172     171     249     250     239     238     
183     184     173     172     250     251     240     239     
184     185     174     173     251     252     241     240     
185     186     175     174     252     253     242     241     
186     187     176     175     253     254     243     242     
187     188     177     176     254     255     244     243     
188     189     178     177     255     256     245     244     
189     190     179     178     256     257     246     245     
191     192     181     180     258     259     248     247     
192     193     182     181     259     260     249     248     
193     194     183     182     260     261     250     249     
194     195     184     183     261     262     251     250     
195     196     185     184     262     263     252     251     
196     197     186     185     263     264     253     252     
197     198     187     186     264     265     254     253     
198     199     188     187     265     266     255     254     
199     200     189     188     266     267     256     255     
200     201     190     189     267     268     257     256     
207     208     202     203     274     275     269     270     
208     209     204     202     275     276     271     269     
209     210     205     204     276     277     272     271     
210     211     206     205     277     278     273     272     
214     215     208     207     281     282     275     274     
215     216     209     208     282     283     276     275     
216     217     210     209     283     284     277     276     
217     218     211     210     284     285     278     277     
218     219     212     211     285     286     279     278     
219     220     213     212     286     287     280     279     
225     226     215     214     292     293     282     281     
226     227     216     215     293     294     283     282     
227     228     217     216     294     295     284     283     
228     229     218     217     295     296     285     284     
229     230     219     218     296     297     286     285     
230     231     220     219     297     298     287     286     
231     232     221     220     298     299     288     287     
232     233     222     221     299     300     289     288     
233     234     223     222     300     301     290     289     
234     235     224     223     301     302     291     290     
236     237     226     225     303     304     293     292     
237     238     227     226     304     305     294     293     
238     239     228     227     305     306     295     294     
239     240     229     228     306     307     296     295     
240     241     230     229     307     308     297     296     
241     242     231     230     308     309     298     297     
242     243     232     231     309     310     299     298     
243     244     233     232     310     311     300     299     
244     245     234     233     311     312     301     300     
245     246     235     234     312     313     302     301     
247     248     237     236     314     315     304     303     
248     249     238     237     315     316     305     304     
249     250     239     238     316     317     306     305     
250     251     240     239     317     318     307     306     
251     252     241     240     318     319     308     307     
252     253     242     241     319     320     309     308     
253     254     243     242     320     321     310     309     
254     255     244     243     321     322     311     310     
255     256     245     244     322     323     312     311     
256     257     246     245     323     324     313     312     
258     259     248     247     325     326     315     314     
259     260     249     248     326     327     316     315     
260     261     250     249     327     328     317     316     
261     262     251     250     328     329     318     317     
262     263     252     251     329     330     319     318     
263     264     253     252     330     331     320     319     
264     265     254     253     331     332     321     320     
265     266     255     254     332     333     322     321     
266     267     256     255     333     334     323     322     
267     268     257     256     334     335     324     323     
274     275     269     270     341     342     336     337     
275     276     271     269     342     343     338     336     
276     277     272     271     343     344     339     338     
277     278     273     272     344     345     340     339     