Title = " tecplot file for 2D Cavity problem " 
variables = "x", "y", "z", "velX", "cellCentroidY" 
Zone T = "nmesh0" N = 396 E = 250 DATAPACKING = BLOCK, VARLOCATION = ([4-5]=CELLCENTERED), ZONETYPE=FEBRICK
0.45    0.45    0.5    0.5    0.45    
0.5    0.45    0.5    0.45    0.5    
0.45    0.5    0.45    0.5    0.45    
0.5    0.45    0.5    0.45    0.5    
0.45    0.5    0.45    0.5    0.45    
0.5    0.45    0.5    0.45    0.5    
0.45    0.5    0.45    0.5    0.45    
0.5    0.45    0.5    0.45    0.5    
0.45    0.5    0.45    0.5    0.45    
0.5    0.45    0.5    0.45    0.5    
0.45    0.5    0.45    0.5    0.45    
0.5    0.45    0.5    0.45    0.5    
0.45    0.5    0.45    0.5    0.45    
0.5    0.45    0.5    0.45    0.5    
0.45    0.5    0.45    0.5    0.45    
0.5    0.45    0.5    0.45    0.5    
0.45    0.5    0.45    0.5    0.45    
0.5    0.45    0.5    0.45    0.5    
0.45    0.5    0.45    0.5    0.45    
0.5    0.45    0.5    0.45    0.5    
0.45    0.5    0.45    0.5    0.45    
0.5    0.45    0.5    0.45    0.5    
0.45    0.5    0.45    0.5    0.45    
0.5    0.45    0.5    0.45    0.5    
0.45    0.5    0.45    0.5    0.45    
0.5    0.45    0.5    0.45    0.5    
0.45    0.4    0.4    0.4    0.4    
0.4    0.4    0.4    0.4    0.4    
0.4    0.4    0.4    0.4    0.4    
0.4    0.4    0.4    0.4    0.4    
0.4    0.4    0.4    0.4    0.4    
0.4    0.4    0.4    0.4    0.4    
0.4    0.4    0.4    0.4    0.4    
0.4    0.4    0.4    0.4    0.4    
0.4    0.4    0.4    0.4    0.4    
0.4    0.4    0.4    0.4    0.4    
0.4    0.4    0.4    0.4    0.4    
0.4    0.4    0.4    0.4    0.4    
0.4    0.4    0.4    0.4    0.4    
0.4    0.4    0.35    0.35    0.35    
0.35    0.35    0.35    0.35    0.35    
0.35    0.35    0.35    0.35    0.35    
0.35    0.35    0.35    0.35    0.35    
0.35    0.35    0.35    0.35    0.35    
0.35    0.35    0.35    0.35    0.35    
0.35    0.35    0.35    0.35    0.35    
0.35    0.35    0.35    0.35    0.35    
0.35    0.35    0.35    0.35    0.35    
0.35    0.35    0.35    0.35    0.35    
0.35    0.35    0.35    0.35    0.35    
0.35    0.35    0.35    0.35    0.35    
0.35    0.35    0.35    0.35    0.35    
0.35    0.35    0.35    0.3    0.3    
0.3    0.3    0.3    0.3    0.3    
0.3    0.3    0.3    0.3    0.3    
0.3    0.3    0.3    0.3    0.3    
0.3    0.3    0.3    0.3    0.3    
0.3    0.3    0.3    0.3    0.3    
0.3    0.3    0.3    0.3    0.3    
0.3    0.3    0.3    0.3    0.3    
0.3    0.3    0.3    0.3    0.3    
0.3    0.3    0.3    0.3    0.3    
0.3    0.3    0.3    0.3    0.3    
0.3    0.3    0.3    0.3    0.3    
0.3    0.3    0.3    0.3    0.3    
0.3    0.3    0.3    0.3    0.25    
0.25    0.25    0.25    0.25    0.25    
0.25    0.25    0.25    0.25    0.25    
0.25    0.25    0.25    0.25    0.25    
0.25    0.25    0.25    0.25    0.25    
0.25    0.25    0.25    0.25    0.25    
0.25    0.25    0.25    0.25    0.25    
0.25    0.25    0.25    0.25    0.25    
0.25    0.25    0.25    0.25    0.25    
0.25    0.25    0.25    0.25    0.25    
0.25    0.25    0.25    0.25    0.25    
0.25    0.25    0.25    0.25    0.25    
0.25    0.25    0.25    0.25    0.25    
0.25    0.25    0.25    0.25    0.25    
0.5    
0.05    0.0    0.0    0.05    0.1    
0.1    0.15    0.15    0.2    0.2    
0.25    0.25    0.3    0.3    0.35    
0.35    0.4    0.4    0.45    0.45    
0.5    0.5    0.0    0.0    0.05    
0.05    0.1    0.1    0.15    0.15    
0.2    0.2    0.25    0.25    0.3    
0.3    0.35    0.35    0.4    0.4    
0.45    0.45    0.5    0.5    0.0    
0.0    0.05    0.05    0.1    0.1    
0.15    0.15    0.2    0.2    0.25    
0.25    0.3    0.3    0.35    0.35    
0.4    0.4    0.45    0.45    0.5    
0.5    0.0    0.0    0.05    0.05    
0.1    0.1    0.15    0.15    0.2    
0.2    0.25    0.25    0.3    0.3    
0.35    0.35    0.4    0.4    0.45    
0.45    0.5    0.5    0.0    0.0    
0.05    0.05    0.1    0.1    0.15    
0.15    0.2    0.2    0.25    0.25    
0.3    0.3    0.35    0.35    0.4    
0.4    0.45    0.45    0.5    0.5    
-1.0408340856e-17    0.0    0.05    0.05    0.1    
0.1    0.15    0.15    0.2    0.2    
0.25    0.25    0.3    0.3    0.35    
0.35    0.4    0.4    0.45    0.45    
0.5    0.05    0.0    0.1    0.15    
0.2    0.25    0.3    0.35    0.4    
0.45    0.5    0.0    0.05    0.1    
0.15    0.2    0.25    0.3    0.35    
0.4    0.45    0.5    0.0    0.05    
0.1    0.15    0.2    0.25    0.3    
0.35    0.4    0.45    0.5    0.0    
0.05    0.1    0.15    0.2    0.25    
0.3    0.35    0.4    0.45    0.5    
0.0    0.05    0.1    0.15    0.2    
0.25    0.3    0.35    0.4    0.45    
0.5    -6.9388939039e-18    0.05    0.1    0.15    
0.2    0.25    0.3    0.35    0.4    
0.45    0.5    0.05    0.0    0.1    
0.15    0.2    0.25    0.3    0.35    
0.4    0.45    0.5    0.0    0.05    
0.1    0.15    0.2    0.25    0.3    
0.35    0.4    0.45    0.5    0.0    
0.05    0.1    0.15    0.2    0.25    
0.3    0.35    0.4    0.45    0.5    
0.0    0.05    0.1    0.15    0.2    
0.25    0.3    0.35    0.4    0.45    
0.5    0.0    0.05    0.1    0.15    
0.2    0.25    0.3    0.35    0.4    
0.45    0.5    -1.3877787808e-17    0.05    0.1    
0.15    0.2    0.25    0.3    0.35    
0.4    0.45    0.5    0.05    0.0    
0.1    0.15    0.2    0.25    0.3    
0.35    0.4    0.45    0.5    0.0    
0.05    0.1    0.15    0.2    0.25    
0.3    0.35    0.4    0.45    0.5    
0.0    0.05    0.1    0.15    0.2    
0.25    0.3    0.35    0.4    0.45    
0.5    0.0    0.05    0.1    0.15    
0.2    0.25    0.3    0.35    0.4    
0.45    0.5    0.0    0.05    0.1    
0.15    0.2    0.25    0.3    0.35    
0.4    0.45    0.5    -6.9388939039e-18    0.05    
0.1    0.15    0.2    0.25    0.3    
0.35    0.4    0.45    0.5    0.05    
0.0    0.1    0.15    0.2    0.25    
0.3    0.35    0.4    0.45    0.5    
0.0    0.05    0.1    0.15    0.2    
0.25    0.3    0.35    0.4    0.45    
0.5    0.0    0.05    0.1    0.15    
0.2    0.25    0.3    0.35    0.4    
0.45    0.5    0.0    0.05    0.1    
0.15    0.2    0.25    0.3    0.35    
0.4    0.45    0.5    0.0    0.05    
0.1    0.15    0.2    0.25    0.3    
0.35    0.4    0.45    0.5    6.9388939039e-18    
0.05    0.1    0.15    0.2    0.25    
0.3    0.35    0.4    0.45    0.5    
0.5    
-0.25    -0.25    -0.25    -0.25    -0.25    
-0.25    -0.25    -0.25    -0.25    -0.25    
-0.25    -0.25    -0.25    -0.25    -0.25    
-0.25    -0.25    -0.25    -0.25    -0.25    
-0.25    -0.25    -0.3    -0.3    -0.3    
-0.3    -0.3    -0.3    -0.3    -0.3    
-0.3    -0.3    -0.3    -0.3    -0.3    
-0.3    -0.3    -0.3    -0.3    -0.3    
-0.3    -0.3    -0.3    -0.3    -0.35    
-0.35    -0.35    -0.35    -0.35    -0.35    
-0.35    -0.35    -0.35    -0.35    -0.35    
-0.35    -0.35    -0.35    -0.35    -0.35    
-0.35    -0.35    -0.35    -0.35    -0.35    
-0.35    -0.4    -0.4    -0.4    -0.4    
-0.4    -0.4    -0.4    -0.4    -0.4    
-0.4    -0.4    -0.4    -0.4    -0.4    
-0.4    -0.4    -0.4    -0.4    -0.4    
-0.4    -0.4    -0.4    -0.45    -0.45    
-0.45    -0.45    -0.45    -0.45    -0.45    
-0.45    -0.45    -0.45    -0.45    -0.45    
-0.45    -0.45    -0.45    -0.45    -0.45    
-0.45    -0.45    -0.45    -0.45    -0.45    
-0.5    -0.5    -0.5    -0.5    -0.5    
-0.5    -0.5    -0.5    -0.5    -0.5    
-0.5    -0.5    -0.5    -0.5    -0.5    
-0.5    -0.5    -0.5    -0.5    -0.5    
-0.5    -0.25    -0.25    -0.25    -0.25    
-0.25    -0.25    -0.25    -0.25    -0.25    
-0.25    -0.25    -0.3    -0.3    -0.3    
-0.3    -0.3    -0.3    -0.3    -0.3    
-0.3    -0.3    -0.3    -0.35    -0.35    
-0.35    -0.35    -0.35    -0.35    -0.35    
-0.35    -0.35    -0.35    -0.35    -0.4    
-0.4    -0.4    -0.4    -0.4    -0.4    
-0.4    -0.4    -0.4    -0.4    -0.4    
-0.45    -0.45    -0.45    -0.45    -0.45    
-0.45    -0.45    -0.45    -0.45    -0.45    
-0.45    -0.5    -0.5    -0.5    -0.5    
-0.5    -0.5    -0.5    -0.5    -0.5    
-0.5    -0.5    -0.25    -0.25    -0.25    
-0.25    -0.25    -0.25    -0.25    -0.25    
-0.25    -0.25    -0.25    -0.3    -0.3    
-0.3    -0.3    -0.3    -0.3    -0.3    
-0.3    -0.3    -0.3    -0.3    -0.35    
-0.35    -0.35    -0.35    -0.35    -0.35    
-0.35    -0.35    -0.35    -0.35    -0.35    
-0.4    -0.4    -0.4    -0.4    -0.4    
-0.4    -0.4    -0.4    -0.4    -0.4    
-0.4    -0.45    -0.45    -0.45    -0.45    
-0.45    -0.45    -0.45    -0.45    -0.45    
-0.45    -0.45    -0.5    -0.5    -0.5    
-0.5    -0.5    -0.5    -0.5    -0.5    
-0.5    -0.5    -0.5    -0.25    -0.25    
-0.25    -0.25    -0.25    -0.25    -0.25    
-0.25    -0.25    -0.25    -0.25    -0.3    
-0.3    -0.3    -0.3    -0.3    -0.3    
-0.3    -0.3    -0.3    -0.3    -0.3    
-0.35    -0.35    -0.35    -0.35    -0.35    
-0.35    -0.35    -0.35    -0.35    -0.35    
-0.35    -0.4    -0.4    -0.4    -0.4    
-0.4    -0.4    -0.4    -0.4    -0.4    
-0.4    -0.4    -0.45    -0.45    -0.45    
-0.45    -0.45    -0.45    -0.45    -0.45    
-0.45    -0.45    -0.45    -0.5    -0.5    
-0.5    -0.5    -0.5    -0.5    -0.5    
-0.5    -0.5    -0.5    -0.5    -0.25    
-0.25    -0.25    -0.25    -0.25    -0.25    
-0.25    -0.25    -0.25    -0.25    -0.25    
-0.3    -0.3    -0.3    -0.3    -0.3    
-0.3    -0.3    -0.3    -0.3    -0.3    
-0.3    -0.35    -0.35    -0.35    -0.35    
-0.35    -0.35    -0.35    -0.35    -0.35    
-0.35    -0.35    -0.4    -0.4    -0.4    
-0.4    -0.4    -0.4    -0.4    -0.4    
-0.4    -0.4    -0.4    -0.45    -0.45    
-0.45    -0.45    -0.45    -0.45    -0.45    
-0.45    -0.45    -0.45    -0.45    -0.5    
-0.5    -0.5    -0.5    -0.5    -0.5    
-0.5    -0.5    -0.5    -0.5    -0.5    
-0.5    
395.520293727    394.178530301    392.352248747    389.795814593    386.08247109    
380.403324152    371.020983665    353.510574257    314.140969504    201.776918821    
396.326647665    395.195111418    393.630953095    391.396881201    388.067507213    
382.814113093    373.82748276    356.50287474    316.755400958    202.979984641    
397.263636817    396.398520626    395.183887764    393.411343759    390.690486258    
386.222703142    378.181543606    361.768131379    322.203962627    206.192187646    
398.309255313    397.763647501    396.987319192    395.831790061    394.004147045    
390.862454238    384.807407202    371.228690519    334.740546381    217.302410609    
399.427807336    399.241021283    398.973067925    398.568883735    397.914421834    
396.73819685    394.26624449    387.776944667    365.491931804    266.677417002    
386.75431055    382.827557156    377.519346572    370.168329339    359.682366787    
344.170959945    320.190450508    281.156257842    214.178638819    95.8716656708    
389.140847752    385.831128244    381.28854254    374.872549747    365.488598857    
351.177774385    328.27286422    289.658533827    221.460015196    99.1153697055    
391.912397036    389.383360881    385.859077675    380.776361029    373.127702648    
361.010324799    340.645080756    304.259848161    235.971472023    107.051143289    
395.003638715    393.409416094    391.158841087    387.850836698    382.729876919    
374.264725426    359.112917557    329.507804005    266.95682911    130.809133844    
398.309255312    397.763647501    396.987319191    395.831790061    394.004147045    
390.862454238    384.807407201    371.228690519    334.740546381    217.302410609    
378.537258448    372.291298612    363.944735322    352.578831772    336.769756691    
314.2776723    281.579664099    233.313150916    162.194263416    61.7224036106    
382.410971367    377.151349751    370.01819993    360.116585536    346.00369238    
325.309785407    294.137863095    246.299342806    173.080675848    66.4447791424    
386.904859727    382.889625625    377.36347275    369.536655654    358.070568026    
340.623962439    313.032986188    268.00806698    193.897033754    77.2698398023    
391.912397036    389.383360885    385.859077679    380.776361035    373.127702652    
361.010324801    340.645080756    304.259848162    235.971472023    107.051143289    
397.263636816    396.398520626    395.183887766    393.411343761    390.69048626    
386.222703143    378.181543606    361.76813138    322.203962627    206.192187646    
371.144881267    362.944907939    352.137111901    337.696479011    318.133221152    
291.303760375    254.241987478    203.233377415    134.723720864    48.1989880803    
376.364219544    369.466874766    360.244513693    347.689583756    330.266859772    
305.637747859    270.33253586    219.597766176    148.188620771    53.9251650302    
382.410971371    377.151349759    370.018199938    360.116585544    346.003692383    
325.309785409    294.137863095    246.299342806    173.080675846    66.4447791417    
389.140847752    385.831128253    381.288542552    374.872549757    365.488598864    
351.177774388    328.272864221    289.658533827    221.460015196    99.1153697055    
396.326647662    395.19511142    393.630953098    391.396881203    388.067507215    
382.814113094    373.827482761    356.50287474    316.755400958    202.979984641    
364.754694661    354.994943115    342.310145883    325.67005557    303.660057518    
274.389938438    235.495102388    184.435940749    119.482183624    41.8067834196    
371.144881257    362.944907941    352.137111898    337.696479004    318.133221136    
291.303760359    254.241987469    203.23337741    134.723720861    48.1989880791    
378.537258436    372.291298614    363.944735328    352.578831773    336.76975668    
314.277672285    281.579664087    233.313150909    162.194263412    61.7224036092    
386.754310536    382.827557158    377.519346577    370.168329341    359.682366782    
344.170959935    320.190450501    281.156257836    214.178638817    95.8716656703    
395.520293718    394.178530298    392.352248746    389.795814591    386.082471087    
380.403324148    371.020983662    353.510574255    314.140969503    201.776918821    

0.025    0.075    0.125    0.175    0.225    
0.275    0.325    0.375    0.425    0.475    
0.025    0.075    0.125    0.175    0.225    
0.275    0.325    0.375    0.425    0.475    
0.025    0.075    0.125    0.175    0.225    
0.275    0.325    0.375    0.425    0.475    
0.025    0.075    0.125    0.175    0.225    
0.275    0.325    0.375    0.425    0.475    
0.025    0.075    0.125    0.175    0.225    
0.275    0.325    0.375    0.425    0.475    
0.025    0.075    0.125    0.175    0.225    
0.275    0.325    0.375    0.425    0.475    
0.025    0.075    0.125    0.175    0.225    
0.275    0.325    0.375    0.425    0.475    
0.025    0.075    0.125    0.175    0.225    
0.275    0.325    0.375    0.425    0.475    
0.025    0.075    0.125    0.175    0.225    
0.275    0.325    0.375    0.425    0.475    
0.025    0.075    0.125    0.175    0.225    
0.275    0.325    0.375    0.425    0.475    
0.025    0.075    0.125    0.175    0.225    
0.275    0.325    0.375    0.425    0.475    
0.025    0.075    0.125    0.175    0.225    
0.275    0.325    0.375    0.425    0.475    
0.025    0.075    0.125    0.175    0.225    
0.275    0.325    0.375    0.425    0.475    
0.025    0.075    0.125    0.175    0.225    
0.275    0.325    0.375    0.425    0.475    
0.025    0.075    0.125    0.175    0.225    
0.275    0.325    0.375    0.425    0.475    
0.025    0.075    0.125    0.175    0.225    
0.275    0.325    0.375    0.425    0.475    
0.025    0.075    0.125    0.175    0.225    
0.275    0.325    0.375    0.425    0.475    
0.025    0.075    0.125    0.175    0.225    
0.275    0.325    0.375    0.425    0.475    
0.025    0.075    0.125    0.175    0.225    
0.275    0.325    0.375    0.425    0.475    
0.025    0.075    0.125    0.175    0.225    
0.275    0.325    0.375    0.425    0.475    
0.025    0.075    0.125    0.175    0.225    
0.275    0.325    0.375    0.425    0.475    
0.025    0.075    0.125    0.175    0.225    
0.275    0.325    0.375    0.425    0.475    
0.025    0.075    0.125    0.175    0.225    
0.275    0.325    0.375    0.425    0.475    
0.025    0.075    0.125    0.175    0.225    
0.275    0.325    0.375    0.425    0.475    
0.025    0.075    0.125    0.175    0.225    
0.275    0.325    0.375    0.425    0.475    

4     26     25     1     3     24     23     2     
1     25     26     4     5     27     28     6     
5     27     28     6     7     29     30     8     
7     29     30     8     9     31     32     10     
9     31     32     10     11     33     34     12     
11     33     34     12     13     35     36     14     
13     35     36     14     15     37     38     16     
15     37     38     16     17     39     40     18     
17     39     40     18     19     41     42     20     
19     41     42     20     21     43     44     22     
25     23     24     26     47     45     46     48     
27     25     26     28     49     47     48     50     
29     27     28     30     51     49     50     52     
31     29     30     32     53     51     52     54     
33     31     32     34     55     53     54     56     
35     33     34     36     57     55     56     58     
37     35     36     38     59     57     58     60     
39     37     38     40     61     59     60     62     
41     39     40     42     63     61     62     64     
43     41     42     44     65     63     64     66     
47     45     46     48     69     67     68     70     
49     47     48     50     71     69     70     72     
51     49     50     52     73     71     72     74     
53     51     52     54     75     73     74     76     
55     53     54     56     77     75     76     78     
57     55     56     58     79     77     78     80     
59     57     58     60     81     79     80     82     
61     59     60     62     83     81     82     84     
63     61     62     64     85     83     84     86     
65     63     64     66     87     85     86     88     
69     67     68     70     91     89     90     92     
71     69     70     72     93     91     92     94     
73     71     72     74     95     93     94     96     
75     73     74     76     97     95     96     98     
77     75     76     78     99     97     98     100     
79     77     78     80     101     99     100     102     
81     79     80     82     103     101     102     104     
83     81     82     84     105     103     104     106     
85     83     84     86     107     105     106     108     
87     85     86     88     109     107     108     110     
91     89     90     92     113     111     112     114     
93     91     92     94     115     113     114     116     
95     93     94     96     117     115     116     118     
97     95     96     98     119     117     118     120     
99     97     98     100     121     119     120     122     
101     99     100     102     123     121     122     124     
103     101     102     104     125     123     124     126     
105     103     104     106     127     125     126     128     
107     105     106     108     129     127     128     130     
109     107     108     110     131     129     130     396     
23     25     1     2     143     144     132     133     
25     27     5     1     144     145     134     132     
27     29     7     5     145     146     135     134     
29     31     9     7     146     147     136     135     
31     33     11     9     147     148     137     136     
33     35     13     11     148     149     138     137     
35     37     15     13     149     150     139     138     
37     39     17     15     150     151     140     139     
39     41     19     17     151     152     141     140     
41     43     21     19     152     153     142     141     
45     47     25     23     154     155     144     143     
47     49     27     25     155     156     145     144     
49     51     29     27     156     157     146     145     
51     53     31     29     157     158     147     146     
53     55     33     31     158     159     148     147     
55     57     35     33     159     160     149     148     
57     59     37     35     160     161     150     149     
59     61     39     37     161     162     151     150     
61     63     41     39     162     163     152     151     
63     65     43     41     163     164     153     152     
67     69     47     45     165     166     155     154     
69     71     49     47     166     167     156     155     
71     73     51     49     167     168     157     156     
73     75     53     51     168     169     158     157     
75     77     55     53     169     170     159     158     
77     79     57     55     170     171     160     159     
79     81     59     57     171     172     161     160     
81     83     61     59     172     173     162     161     
83     85     63     61     173     174     163     162     
85     87     65     63     174     175     164     163     
89     91     69     67     176     177     166     165     
91     93     71     69     177     178     167     166     
93     95     73     71     178     179     168     167     
95     97     75     73     179     180     169     168     
97     99     77     75     180     181     170     169     
99     101     79     77     181     182     171     170     
101     103     81     79     182     183     172     171     
103     105     83     81     183     184     173     172     
105     107     85     83     184     185     174     173     
107     109     87     85     185     186     175     174     
111     113     91     89     187     188     177     176     
113     115     93     91     188     189     178     177     
115     117     95     93     189     190     179     178     
117     119     97     95     190     191     180     179     
119     121     99     97     191     192     181     180     
121     123     101     99     192     193     182     181     
123     125     103     101     193     194     183     182     
125     127     105     103     194     195     184     183     
127     129     107     105     195     196     185     184     
129     131     109     107     196     197     186     185     
143     144     132     133     209     210     198     199     
144     145     134     132     210     211     200     198     
145     146     135     134     211     212     201     200     
146     147     136     135     212     213     202     201     
147     148     137     136     213     214     203     202     
148     149     138     137     214     215     204     203     
149     150     139     138     215     216     205     204     
150     151     140     139     216     217     206     205     
151     152     141     140     217     218     207     206     
152     153     142     141     218     219     208     207     
154     155     144     143     220     221     210     209     
155     156     145     144     221     222     211     210     
156     157     146     145     222     223     212     211     
157     158     147     146     223     224     213     212     
158     159     148     147     224     225     214     213     
159     160     149     148     225     226     215     214     
160     161     150     149     226     227     216     215     
161     162     151     150     227     228     217     216     
162     163     152     151     228     229     218     217     
163     164     153     152     229     230     219     218     
165     166     155     154     231     232     221     220     
166     167     156     155     232     233     222     221     
167     168     157     156     233     234     223     222     
168     169     158     157     234     235     224     223     
169     170     159     158     235     236     225     224     
170     171     160     159     236     237     226     225     
171     172     161     160     237     238     227     226     
172     173     162     161     238     239     228     227     
173     174     163     162     239     240     229     228     
174     175     164     163     240     241     230     229     
176     177     166     165     242     243     232     231     
177     178     167     166     243     244     233     232     
178     179     168     167     244     245     234     233     
179     180     169     168     245     246     235     234     
180     181     170     169     246     247     236     235     
181     182     171     170     247     248     237     236     
182     183     172     171     248     249     238     237     
183     184     173     172     249     250     239     238     
184     185     174     173     250     251     240     239     
185     186     175     174     251     252     241     240     
187     188     177     176     253     254     243     242     
188     189     178     177     254     255     244     243     
189     190     179     178     255     256     245     244     
190     191     180     179     256     257     246     245     
191     192     181     180     257     258     247     246     
192     193     182     181     258     259     248     247     
193     194     183     182     259     260     249     248     
194     195     184     183     260     261     250     249     
195     196     185     184     261     262     251     250     
196     197     186     185     262     263     252     251     
209     210     198     199     275     276     264     265     
210     211     200     198     276     277     266     264     
211     212     201     200     277     278     267     266     
212     213     202     201     278     279     268     267     
213     214     203     202     279     280     269     268     
214     215     204     203     280     281     270     269     
215     216     205     204     281     282     271     270     
216     217     206     205     282     283     272     271     
217     218     207     206     283     284     273     272     
218     219     208     207     284     285     274     273     
220     221     210     209     286     287     276     275     
221     222     211     210     287     288     277     276     
222     223     212     211     288     289     278     277     
223     224     213     212     289     290     279     278     
224     225     214     213     290     291     280     279     
225     226     215     214     291     292     281     280     
226     227     216     215     292     293     282     281     
227     228     217     216     293     294     283     282     
228     229     218     217     294     295     284     283     
229     230     219     218     295     296     285     284     
231     232     221     220     297     298     287     286     
232     233     222     221     298     299     288     287     
233     234     223     222     299     300     289     288     
234     235     224     223     300     301     290     289     
235     236     225     224     301     302     291     290     
236     237     226     225     302     303     292     291     
237     238     227     226     303     304     293     292     
238     239     228     227     304     305     294     293     
239     240     229     228     305     306     295     294     
240     241     230     229     306     307     296     295     
242     243     232     231     308     309     298     297     
243     244     233     232     309     310     299     298     
244     245     234     233     310     311     300     299     
245     246     235     234     311     312     301     300     
246     247     236     235     312     313     302     301     
247     248     237     236     313     314     303     302     
248     249     238     237     314     315     304     303     
249     250     239     238     315     316     305     304     
250     251     240     239     316     317     306     305     
251     252     241     240     317     318     307     306     
253     254     243     242     319     320     309     308     
254     255     244     243     320     321     310     309     
255     256     245     244     321     322     311     310     
256     257     246     245     322     323     312     311     
257     258     247     246     323     324     313     312     
258     259     248     247     324     325     314     313     
259     260     249     248     325     326     315     314     
260     261     250     249     326     327     316     315     
261     262     251     250     327     328     317     316     
262     263     252     251     328     329     318     317     
275     276     264     265     341     342     330     331     
276     277     266     264     342     343     332     330     
277     278     267     266     343     344     333     332     
278     279     268     267     344     345     334     333     
279     280     269     268     345     346     335     334     
280     281     270     269     346     347     336     335     
281     282     271     270     347     348     337     336     
282     283     272     271     348     349     338     337     
283     284     273     272     349     350     339     338     
284     285     274     273     350     351     340     339     
286     287     276     275     352     353     342     341     
287     288     277     276     353     354     343     342     
288     289     278     277     354     355     344     343     
289     290     279     278     355     356     345     344     
290     291     280     279     356     357     346     345     
291     292     281     280     357     358     347     346     
292     293     282     281     358     359     348     347     