title = " tecplot file for process Mesh " 
variables = "x",  "y", "z", "cell_type" 
zone N = 155 E = 180 DATAPACKING = BLOCK,  VARLOCATION = ([4]=CELLCENTERED), ZONETYPE=FEQUADRILATERAL 
3.125000e-01     
3.125000e-01     3.125000e-01     3.125000e-01     3.125000e-01     3.125000e-01     
3.125000e-01     3.125000e-01     2.812500e-01     2.812500e-01     2.812500e-01     
2.812500e-01     2.812500e-01     2.812500e-01     2.812500e-01     2.812500e-01     
2.812500e-01     2.500000e-01     2.500000e-01     2.500000e-01     2.500000e-01     
2.500000e-01     2.500000e-01     2.500000e-01     2.500000e-01     2.500000e-01     
2.500000e-01     2.500000e-01     2.500000e-01     2.500000e-01     2.500000e-01     
2.500000e-01     2.500000e-01     2.500000e-01     2.187500e-01     2.187500e-01     
2.187500e-01     2.187500e-01     2.187500e-01     2.187500e-01     2.187500e-01     
2.187500e-01     2.187500e-01     2.187500e-01     2.187500e-01     2.187500e-01     
2.187500e-01     2.187500e-01     2.187500e-01     2.187500e-01     1.875000e-01     
1.875000e-01     1.875000e-01     1.875000e-01     1.875000e-01     1.875000e-01     
1.875000e-01     1.875000e-01     1.875000e-01     1.875000e-01     1.875000e-01     
1.875000e-01     1.875000e-01     1.875000e-01     1.875000e-01     1.875000e-01     
1.562500e-01     1.562500e-01     1.562500e-01     1.562500e-01     1.562500e-01     
1.562500e-01     1.562500e-01     1.562500e-01     1.562500e-01     1.562500e-01     
1.562500e-01     1.562500e-01     1.562500e-01     1.562500e-01     1.562500e-01     
1.250000e-01     1.250000e-01     1.250000e-01     1.250000e-01     1.250000e-01     
1.250000e-01     1.250000e-01     1.250000e-01     1.250000e-01     1.250000e-01     
1.250000e-01     1.250000e-01     1.250000e-01     1.250000e-01     1.250000e-01     
9.375000e-02     9.375000e-02     9.375000e-02     9.375000e-02     9.375000e-02     
9.375000e-02     9.375000e-02     9.375000e-02     9.375000e-02     9.375000e-02     
9.375000e-02     9.375000e-02     9.375000e-02     9.375000e-02     9.375000e-02     
6.250000e-02     6.250000e-02     6.250000e-02     6.250000e-02     6.250000e-02     
6.250000e-02     6.250000e-02     6.250000e-02     6.250000e-02     6.250000e-02     
6.250000e-02     6.250000e-02     6.250000e-02     6.250000e-02     6.250000e-02     
3.125000e-02     3.125000e-02     3.125000e-02     3.125000e-02     3.125000e-02     
3.125000e-02     3.125000e-02     3.125000e-02     3.125000e-02     3.125000e-02     
3.125000e-02     3.125000e-02     3.125000e-02     3.125000e-02     3.125000e-02     
0.000000e+00     0.000000e+00     0.000000e+00     0.000000e+00     0.000000e+00     
0.000000e+00     0.000000e+00     0.000000e+00     0.000000e+00     0.000000e+00     
0.000000e+00     0.000000e+00     0.000000e+00     0.000000e+00     
7.187500e-01     
6.875000e-01     6.562500e-01     6.250000e-01     5.937500e-01     5.625000e-01     
5.312500e-01     5.000000e-01     7.187500e-01     7.500000e-01     6.875000e-01     
6.562500e-01     6.250000e-01     5.937500e-01     5.625000e-01     5.312500e-01     
5.000000e-01     1.000000e+00     9.687500e-01     9.375000e-01     9.062500e-01     
8.750000e-01     8.437500e-01     8.125000e-01     7.812500e-01     7.500000e-01     
7.187500e-01     6.875000e-01     6.562500e-01     6.250000e-01     5.937500e-01     
5.625000e-01     5.312500e-01     5.000000e-01     9.687500e-01     1.000000e+00     
9.375000e-01     9.062500e-01     8.750000e-01     8.437500e-01     8.125000e-01     
7.812500e-01     7.500000e-01     7.187500e-01     6.875000e-01     6.562500e-01     
6.250000e-01     5.937500e-01     5.625000e-01     5.312500e-01     9.687500e-01     
1.000000e+00     9.375000e-01     9.062500e-01     8.750000e-01     8.437500e-01     
8.125000e-01     7.812500e-01     7.500000e-01     7.187500e-01     6.875000e-01     
6.562500e-01     6.250000e-01     5.937500e-01     5.625000e-01     5.312500e-01     
9.687500e-01     1.000000e+00     9.375000e-01     9.062500e-01     8.750000e-01     
8.437500e-01     8.125000e-01     7.812500e-01     7.500000e-01     7.187500e-01     
6.875000e-01     6.562500e-01     6.250000e-01     5.937500e-01     5.625000e-01     
9.687500e-01     1.000000e+00     9.375000e-01     9.062500e-01     8.750000e-01     
8.437500e-01     8.125000e-01     7.812500e-01     7.500000e-01     7.187500e-01     
6.875000e-01     6.562500e-01     6.250000e-01     5.937500e-01     5.625000e-01     
9.687500e-01     1.000000e+00     9.375000e-01     9.062500e-01     8.750000e-01     
8.437500e-01     8.125000e-01     7.812500e-01     7.500000e-01     7.187500e-01     
6.875000e-01     6.562500e-01     6.250000e-01     5.937500e-01     5.625000e-01     
9.687500e-01     1.000000e+00     9.375000e-01     9.062500e-01     8.750000e-01     
8.437500e-01     8.125000e-01     7.812500e-01     7.500000e-01     7.187500e-01     
6.875000e-01     6.562500e-01     6.250000e-01     5.937500e-01     5.625000e-01     
9.687500e-01     1.000000e+00     9.375000e-01     9.062500e-01     8.750000e-01     
8.437500e-01     8.125000e-01     7.812500e-01     7.500000e-01     7.187500e-01     
6.875000e-01     6.562500e-01     6.250000e-01     5.937500e-01     5.625000e-01     
9.687500e-01     9.375000e-01     9.062500e-01     8.750000e-01     8.437500e-01     
8.125000e-01     7.812500e-01     7.500000e-01     7.187500e-01     6.875000e-01     
6.562500e-01     6.250000e-01     5.937500e-01     1.000000e+00     
0.000000e+00     
0.000000e+00     0.000000e+00     0.000000e+00     0.000000e+00     0.000000e+00     
0.000000e+00     0.000000e+00     0.000000e+00     0.000000e+00     0.000000e+00     
0.000000e+00     0.000000e+00     0.000000e+00     0.000000e+00     0.000000e+00     
0.000000e+00     0.000000e+00     0.000000e+00     0.000000e+00     0.000000e+00     
0.000000e+00     0.000000e+00     0.000000e+00     0.000000e+00     0.000000e+00     
0.000000e+00     0.000000e+00     0.000000e+00     0.000000e+00     0.000000e+00     
0.000000e+00     0.000000e+00     0.000000e+00     0.000000e+00     0.000000e+00     
0.000000e+00     0.000000e+00     0.000000e+00     0.000000e+00     0.000000e+00     
0.000000e+00     0.000000e+00     0.000000e+00     0.000000e+00     0.000000e+00     
0.000000e+00     0.000000e+00     0.000000e+00     0.000000e+00     0.000000e+00     
0.000000e+00     0.000000e+00     0.000000e+00     0.000000e+00     0.000000e+00     
0.000000e+00     0.000000e+00     0.000000e+00     0.000000e+00     0.000000e+00     
0.000000e+00     0.000000e+00     0.000000e+00     0.000000e+00     0.000000e+00     
0.000000e+00     0.000000e+00     0.000000e+00     0.000000e+00     0.000000e+00     
0.000000e+00     0.000000e+00     0.000000e+00     0.000000e+00     0.000000e+00     
0.000000e+00     0.000000e+00     0.000000e+00     0.000000e+00     0.000000e+00     
0.000000e+00     0.000000e+00     0.000000e+00     0.000000e+00     0.000000e+00     
0.000000e+00     0.000000e+00     0.000000e+00     0.000000e+00     0.000000e+00     
0.000000e+00     0.000000e+00     0.000000e+00     0.000000e+00     0.000000e+00     
0.000000e+00     0.000000e+00     0.000000e+00     0.000000e+00     0.000000e+00     
0.000000e+00     0.000000e+00     0.000000e+00     0.000000e+00     0.000000e+00     
0.000000e+00     0.000000e+00     0.000000e+00     0.000000e+00     0.000000e+00     
0.000000e+00     0.000000e+00     0.000000e+00     0.000000e+00     0.000000e+00     
0.000000e+00     0.000000e+00     0.000000e+00     0.000000e+00     0.000000e+00     
0.000000e+00     0.000000e+00     0.000000e+00     0.000000e+00     0.000000e+00     
0.000000e+00     0.000000e+00     0.000000e+00     0.000000e+00     0.000000e+00     
0.000000e+00     0.000000e+00     0.000000e+00     0.000000e+00     0.000000e+00     
0.000000e+00     0.000000e+00     0.000000e+00     0.000000e+00     0.000000e+00     
0.000000e+00     0.000000e+00     0.000000e+00     0.000000e+00     0.000000e+00     
0.000000e+00     0.000000e+00     0.000000e+00     0.000000e+00     0.000000e+00     
0.000000e+00     0.000000e+00     0.000000e+00     0.000000e+00     

0      
0      0      0      0      0      0      0      0      0      0      
0      0      0      0      0      0      0      0      0      0      
0      0      0      0      0      0      0      0      0      0      
0      0      0      0      0      0      0      0      0      0      
0      0      0      0      0      0      0      0      0      0      
0      0      0      0      0      0      0      0      0      0      
0      0      0      0      0      0      0      0      0      0      
0      0      0      0      0      0      0      0      0      0      
0      0      0      0      0      0      0      0      0      0      
0      0      0      0      0      0      0      0      0      0      
0      0      0      0      0      0      0      0      0      0      
0      0      0      0      0      0      0      0      0      0      
0      0      0      0      0      0      0      1      1      1      
1      1      1      1      1      1      1      1      1      1      
1      1      1      1      1      1      1      1      1      1      
1      1      1      1      1      1      1      1      1      1      
1      1      1      1      1      1      1      1      1      1      
1      1      1      1      1      1      1      1      1      

11      2      1      9      
2      11      12      3      
11      9      27      28      
3      12      13      4      
12      11      28      29      
4      13      14      5      
13      12      29      30      
5      14      15      6      
14      13      30      31      
6      15      16      7      
15      14      31      32      
7      16      17      8      
16      15      32      33      
17      16      33      34      
27      9      10      26      
27      26      43      44      
28      27      44      45      
29      28      45      46      
30      29      46      47      
31      30      47      48      
32      31      48      49      
33      32      49      50      
35      19      18      36      
19      35      37      20      
35      36      52      51      
20      37      38      21      
37      35      51      53      
21      38      39      22      
38      37      53      54      
22      39      40      23      
39      38      54      55      
23      40      41      24      
40      39      55      56      
24      41      42      25      
41      40      56      57      
25      42      43      26      
42      41      57      58      
43      42      58      59      
44      43      59      60      
45      44      60      61      
46      45      61      62      
47      46      62      63      
48      47      63      64      
49      48      64      65      
50      49      65      66      
51      52      68      67      
53      51      67      69      
54      53      69      70      
55      54      70      71      
56      55      71      72      
57      56      72      73      
58      57      73      74      
59      58      74      75      
60      59      75      76      
61      60      76      77      
62      61      77      78      
63      62      78      79      
64      63      79      80      
65      64      80      81      
67      68      83      82      
69      67      82      84      
70      69      84      85      
71      70      85      86      
72      71      86      87      
73      72      87      88      
74      73      88      89      
75      74      89      90      
76      75      90      91      
77      76      91      92      
78      77      92      93      
79      78      93      94      
80      79      94      95      
81      80      95      96      
82      83      98      97      
84      82      97      99      
85      84      99      100      
86      85      100      101      
87      86      101      102      
88      87      102      103      
89      88      103      104      
90      89      104      105      
91      90      105      106      
92      91      106      107      
93      92      107      108      
94      93      108      109      
95      94      109      110      
96      95      110      111      
97      98      113      112      
99      97      112      114      
100      99      114      115      
101      100      115      116      
102      101      116      117      
103      102      117      118      
104      103      118      119      
105      104      119      120      
106      105      120      121      
107      106      121      122      
108      107      122      123      
109      108      123      124      
110      109      124      125      
111      110      125      126      
112      113      128      127      
114      112      127      129      
115      114      129      130      
116      115      130      131      
117      116      131      132      
118      117      132      133      
119      118      133      134      
120      119      134      135      
121      120      135      136      
122      121      136      137      
123      122      137      138      
124      123      138      139      
125      124      139      140      
126      125      140      141      
127      128      155      142      
129      127      142      143      
130      129      143      144      
131      130      144      145      
132      131      145      146      
133      132      146      147      
134      133      147      148      
135      134      148      149      
136      135      149      150      
137      136      150      151      
138      137      151      152      
139      138      152      153      
140      139      153      154      
18      18       36      36      
36      36       52      52      
52      52       68      68      
68      68       83      83      
83      83       98      98      
98      98       113      113      
113      113       128      128      
128      128       155      155      
155      155       142      142      
142      142       143      143      
143      143       144      144      
144      144       145      145      
145      145       146      146      
146      146       147      147      
147      147       148      148      
148      148       149      149      
149      149       150      150      
150      150       151      151      
151      151       152      152      
152      152       153      153      
153      153       154      154      
2      2       1      1      
1      1       9      9      
9      9       10      10      
19      19       18      18      
20      20       19      19      
21      21       20      20      
22      22       21      21      
23      23       22      22      
24      24       23      23      
25      25       24      24      
10      10       26      26      
26      26       25      25      
3      3       2      2      
4      4       3      3      
5      5       4      4      
6      6       5      5      
7      7       6      6      
8      8       7      7      
17      17       8      8      
34      34       17      17      
33      33       34      34      
50      50       33      33      
66      66       50      50      
65      65       66      66      
81      81       65      65      
96      96       81      81      
111      111       96      96      
126      126       111      111      
141      141       126      126      
140      140       141      141      
154      154       140      140      
