title = " tecplot file for process Mesh " 
variables = "x",  "y", "z", "cell_type" 
zone N = 164 E = 198 DATAPACKING = BLOCK,  VARLOCATION = ([4]=CELLCENTERED), ZONETYPE=FEQUADRILATERAL 
5.937500e-01     
5.937500e-01     5.937500e-01     5.937500e-01     5.625000e-01     5.625000e-01     
5.625000e-01     5.625000e-01     5.625000e-01     5.625000e-01     5.312500e-01     
5.312500e-01     5.312500e-01     5.312500e-01     5.312500e-01     5.312500e-01     
5.312500e-01     5.312500e-01     5.000000e-01     5.000000e-01     5.000000e-01     
5.000000e-01     5.000000e-01     5.000000e-01     5.000000e-01     5.000000e-01     
4.687500e-01     4.687500e-01     4.687500e-01     4.687500e-01     4.687500e-01     
4.687500e-01     4.687500e-01     4.687500e-01     4.687500e-01     4.375000e-01     
4.375000e-01     4.375000e-01     4.375000e-01     4.375000e-01     4.375000e-01     
4.375000e-01     4.375000e-01     4.375000e-01     4.062500e-01     4.062500e-01     
4.062500e-01     4.062500e-01     4.062500e-01     4.062500e-01     4.062500e-01     
4.062500e-01     4.062500e-01     4.062500e-01     3.750000e-01     3.750000e-01     
3.750000e-01     3.750000e-01     3.750000e-01     3.750000e-01     3.750000e-01     
3.750000e-01     3.750000e-01     3.750000e-01     3.437500e-01     3.437500e-01     
3.437500e-01     3.437500e-01     3.437500e-01     3.437500e-01     3.437500e-01     
3.437500e-01     3.437500e-01     3.437500e-01     3.125000e-01     3.125000e-01     
3.125000e-01     3.125000e-01     3.125000e-01     3.125000e-01     3.125000e-01     
3.125000e-01     3.125000e-01     2.812500e-01     2.812500e-01     2.812500e-01     
2.812500e-01     2.500000e-01     2.500000e-01     2.500000e-01     2.500000e-01     
2.500000e-01     2.500000e-01     2.500000e-01     2.187500e-01     2.187500e-01     
2.187500e-01     2.187500e-01     2.187500e-01     2.187500e-01     2.187500e-01     
1.875000e-01     1.875000e-01     1.875000e-01     1.875000e-01     1.875000e-01     
1.875000e-01     1.875000e-01     1.875000e-01     1.562500e-01     1.562500e-01     
1.562500e-01     1.562500e-01     1.562500e-01     1.562500e-01     1.562500e-01     
1.562500e-01     1.562500e-01     1.250000e-01     1.250000e-01     1.250000e-01     
1.250000e-01     1.250000e-01     1.250000e-01     1.250000e-01     1.250000e-01     
1.250000e-01     9.375000e-02     9.375000e-02     9.375000e-02     9.375000e-02     
9.375000e-02     9.375000e-02     9.375000e-02     9.375000e-02     9.375000e-02     
6.250000e-02     6.250000e-02     6.250000e-02     6.250000e-02     6.250000e-02     
6.250000e-02     6.250000e-02     6.250000e-02     6.250000e-02     3.125000e-02     
3.125000e-02     3.125000e-02     3.125000e-02     3.125000e-02     3.125000e-02     
3.125000e-02     3.125000e-02     3.125000e-02     3.125000e-02     0.000000e+00     
0.000000e+00     0.000000e+00     0.000000e+00     0.000000e+00     0.000000e+00     
0.000000e+00     0.000000e+00     0.000000e+00     
5.625000e-01     
5.312500e-01     5.000000e-01     4.687500e-01     6.250000e-01     5.937500e-01     
5.625000e-01     5.312500e-01     5.000000e-01     4.687500e-01     6.250000e-01     
6.562500e-01     5.937500e-01     5.625000e-01     5.312500e-01     5.000000e-01     
4.687500e-01     4.375000e-01     6.562500e-01     6.250000e-01     5.937500e-01     
5.625000e-01     5.312500e-01     5.000000e-01     4.687500e-01     4.375000e-01     
6.562500e-01     6.875000e-01     6.250000e-01     5.937500e-01     5.625000e-01     
5.312500e-01     5.000000e-01     4.687500e-01     4.375000e-01     6.875000e-01     
6.562500e-01     6.250000e-01     5.937500e-01     5.625000e-01     5.312500e-01     
5.000000e-01     4.687500e-01     4.375000e-01     6.875000e-01     6.562500e-01     
6.250000e-01     5.937500e-01     5.625000e-01     5.312500e-01     5.000000e-01     
4.687500e-01     4.375000e-01     4.062500e-01     6.875000e-01     6.562500e-01     
6.250000e-01     5.937500e-01     5.625000e-01     5.312500e-01     5.000000e-01     
4.687500e-01     4.375000e-01     4.062500e-01     6.875000e-01     6.562500e-01     
6.250000e-01     5.937500e-01     5.625000e-01     5.312500e-01     5.000000e-01     
4.687500e-01     4.375000e-01     4.062500e-01     6.875000e-01     6.562500e-01     
6.250000e-01     5.937500e-01     5.625000e-01     5.312500e-01     5.000000e-01     
4.687500e-01     4.375000e-01     5.000000e-01     4.687500e-01     4.375000e-01     
4.062500e-01     5.000000e-01     5.312500e-01     4.687500e-01     4.375000e-01     
4.062500e-01     3.750000e-01     3.437500e-01     5.312500e-01     5.000000e-01     
4.687500e-01     4.375000e-01     4.062500e-01     3.750000e-01     3.437500e-01     
5.312500e-01     5.625000e-01     5.000000e-01     4.687500e-01     4.375000e-01     
4.062500e-01     3.750000e-01     3.437500e-01     5.625000e-01     5.312500e-01     
5.000000e-01     4.687500e-01     4.375000e-01     4.062500e-01     3.750000e-01     
3.437500e-01     3.125000e-01     5.625000e-01     5.312500e-01     5.000000e-01     
4.687500e-01     4.375000e-01     4.062500e-01     3.750000e-01     3.437500e-01     
3.125000e-01     5.625000e-01     5.312500e-01     5.000000e-01     4.687500e-01     
4.375000e-01     4.062500e-01     3.750000e-01     3.437500e-01     3.125000e-01     
5.625000e-01     5.312500e-01     5.000000e-01     4.687500e-01     4.375000e-01     
4.062500e-01     3.750000e-01     3.437500e-01     3.125000e-01     5.625000e-01     
5.937500e-01     5.312500e-01     5.000000e-01     4.687500e-01     4.375000e-01     
4.062500e-01     3.750000e-01     3.437500e-01     3.125000e-01     5.937500e-01     
5.625000e-01     5.312500e-01     5.000000e-01     4.687500e-01     4.375000e-01     
4.062500e-01     3.750000e-01     3.437500e-01     
0.000000e+00     
0.000000e+00     0.000000e+00     0.000000e+00     0.000000e+00     0.000000e+00     
0.000000e+00     0.000000e+00     0.000000e+00     0.000000e+00     0.000000e+00     
0.000000e+00     0.000000e+00     0.000000e+00     0.000000e+00     0.000000e+00     
0.000000e+00     0.000000e+00     0.000000e+00     0.000000e+00     0.000000e+00     
0.000000e+00     0.000000e+00     0.000000e+00     0.000000e+00     0.000000e+00     
0.000000e+00     0.000000e+00     0.000000e+00     0.000000e+00     0.000000e+00     
0.000000e+00     0.000000e+00     0.000000e+00     0.000000e+00     0.000000e+00     
0.000000e+00     0.000000e+00     0.000000e+00     0.000000e+00     0.000000e+00     
0.000000e+00     0.000000e+00     0.000000e+00     0.000000e+00     0.000000e+00     
0.000000e+00     0.000000e+00     0.000000e+00     0.000000e+00     0.000000e+00     
0.000000e+00     0.000000e+00     0.000000e+00     0.000000e+00     0.000000e+00     
0.000000e+00     0.000000e+00     0.000000e+00     0.000000e+00     0.000000e+00     
0.000000e+00     0.000000e+00     0.000000e+00     0.000000e+00     0.000000e+00     
0.000000e+00     0.000000e+00     0.000000e+00     0.000000e+00     0.000000e+00     
0.000000e+00     0.000000e+00     0.000000e+00     0.000000e+00     0.000000e+00     
0.000000e+00     0.000000e+00     0.000000e+00     0.000000e+00     0.000000e+00     
0.000000e+00     0.000000e+00     0.000000e+00     0.000000e+00     0.000000e+00     
0.000000e+00     0.000000e+00     0.000000e+00     0.000000e+00     0.000000e+00     
0.000000e+00     0.000000e+00     0.000000e+00     0.000000e+00     0.000000e+00     
0.000000e+00     0.000000e+00     0.000000e+00     0.000000e+00     0.000000e+00     
0.000000e+00     0.000000e+00     0.000000e+00     0.000000e+00     0.000000e+00     
0.000000e+00     0.000000e+00     0.000000e+00     0.000000e+00     0.000000e+00     
0.000000e+00     0.000000e+00     0.000000e+00     0.000000e+00     0.000000e+00     
0.000000e+00     0.000000e+00     0.000000e+00     0.000000e+00     0.000000e+00     
0.000000e+00     0.000000e+00     0.000000e+00     0.000000e+00     0.000000e+00     
0.000000e+00     0.000000e+00     0.000000e+00     0.000000e+00     0.000000e+00     
0.000000e+00     0.000000e+00     0.000000e+00     0.000000e+00     0.000000e+00     
0.000000e+00     0.000000e+00     0.000000e+00     0.000000e+00     0.000000e+00     
0.000000e+00     0.000000e+00     0.000000e+00     0.000000e+00     0.000000e+00     
0.000000e+00     0.000000e+00     0.000000e+00     0.000000e+00     0.000000e+00     
0.000000e+00     0.000000e+00     0.000000e+00     0.000000e+00     0.000000e+00     
0.000000e+00     0.000000e+00     0.000000e+00     0.000000e+00     0.000000e+00     
0.000000e+00     0.000000e+00     0.000000e+00     

0      
0      0      0      0      0      0      0      0      0      0      
0      0      0      0      0      0      0      0      0      0      
0      0      0      0      0      0      0      0      0      0      
0      0      0      0      0      0      0      0      0      0      
0      0      0      0      0      0      0      0      0      0      
0      0      0      0      0      0      0      0      0      0      
0      0      0      0      0      0      0      0      0      0      
0      0      0      0      0      0      0      0      0      0      
0      0      0      0      0      0      0      0      0      0      
0      0      0      0      0      0      0      0      0      0      
0      0      0      0      0      0      0      0      0      0      
0      0      0      0      0      0      0      0      0      0      
0      0      0      0      0      0      0      1      1      1      
1      1      1      1      1      1      1      1      1      1      
1      1      1      1      1      1      1      1      1      1      
1      1      1      1      1      1      1      1      1      1      
1      1      1      1      1      1      1      1      1      1      
1      1      1      1      1      1      1      1      1      1      
1      1      1      1      1      1      1      1      1      1      
1      1      1      1      1      1      1      

8      2      1      7      
2      8      9      3      
8      7      14      15      
3      9      10      4      
9      8      15      16      
10      9      16      17      
13      6      5      11      
6      13      14      7      
13      11      20      21      
14      13      21      22      
15      14      22      23      
16      15      23      24      
17      16      24      25      
20      11      12      19      
20      19      27      29      
21      20      29      30      
22      21      30      31      
23      22      31      32      
24      23      32      33      
17      25      26      18      
25      24      33      34      
26      25      34      35      
29      27      37      38      
30      29      38      39      
31      30      39      40      
32      31      40      41      
33      32      41      42      
34      33      42      43      
35      34      43      44      
37      27      28      36      
37      36      45      46      
38      37      46      47      
39      38      47      48      
40      39      48      49      
41      40      49      50      
42      41      50      51      
43      42      51      52      
44      43      52      53      
46      45      55      56      
47      46      56      57      
48      47      57      58      
49      48      58      59      
50      49      59      60      
51      50      60      61      
52      51      61      62      
53      52      62      63      
56      55      65      66      
57      56      66      67      
58      57      67      68      
59      58      68      69      
60      59      69      70      
61      60      70      71      
62      61      71      72      
53      63      64      54      
63      62      72      73      
64      63      73      74      
66      65      75      76      
67      66      76      77      
68      67      77      78      
69      68      78      79      
70      69      79      80      
71      70      80      81      
72      71      81      82      
73      72      82      83      
82      81      84      85      
83      82      85      86      
85      84      88      90      
86      85      90      91      
90      88      96      97      
86      91      92      87      
91      90      97      98      
92      91      98      99      
96      88      89      95      
96      95      102      104      
97      96      104      105      
98      97      105      106      
92      99      100      93      
99      98      106      107      
93      100      101      94      
100      99      107      108      
101      100      108      109      
104      102      111      112      
105      104      112      113      
106      105      113      114      
107      106      114      115      
108      107      115      116      
109      108      116      117      
111      102      103      110      
111      110      119      120      
112      111      120      121      
113      112      121      122      
114      113      122      123      
115      114      123      124      
116      115      124      125      
117      116      125      126      
120      119      128      129      
121      120      129      130      
122      121      130      131      
123      122      131      132      
124      123      132      133      
125      124      133      134      
117      126      127      118      
126      125      134      135      
127      126      135      136      
129      128      137      138      
130      129      138      139      
131      130      139      140      
132      131      140      141      
133      132      141      142      
134      133      142      143      
135      134      143      144      
136      135      144      145      
138      137      146      148      
139      138      148      149      
140      139      149      150      
141      140      150      151      
142      141      151      152      
143      142      152      153      
144      143      153      154      
145      144      154      155      
148      146      157      158      
149      148      158      159      
150      149      159      160      
151      150      160      161      
152      151      161      162      
153      152      162      163      
154      153      163      164      
157      146      147      156      
156      156       157      157      
157      157       158      158      
158      158       159      159      
159      159       160      160      
160      160       161      161      
161      161       162      162      
162      162       163      163      
163      163       164      164      
5      5       11      11      
11      11       12      12      
12      12       19      19      
19      19       27      27      
27      27       28      28      
28      28       36      36      
36      36       45      45      
45      45       55      55      
55      55       65      65      
65      65       75      75      
2      2       1      1      
3      3       2      2      
4      4       3      3      
6      6       5      5      
1      1       7      7      
7      7       6      6      
75      75       76      76      
76      76       77      77      
77      77       78      78      
78      78       79      79      
79      79       80      80      
80      80       81      81      
81      81       84      84      
84      84       88      88      
88      88       89      89      
89      89       95      95      
95      95       102      102      
102      102       103      103      
103      103       110      110      
110      110       119      119      
119      119       128      128      
128      128       137      137      
137      137       146      146      
146      146       147      147      
147      147       156      156      
74      74       64      64      
73      73       74      74      
83      83       73      73      
86      86       83      83      
87      87       86      86      
92      92       87      87      
93      93       92      92      
94      94       93      93      
101      101       94      94      
109      109       101      101      
117      117       109      109      
118      118       117      117      
127      127       118      118      
136      136       127      127      
145      145       136      136      
155      155       145      145      
154      154       155      155      
164      164       154      154      
10      10       4      4      
17      17       10      10      
18      18       17      17      
26      26       18      18      
35      35       26      26      
44      44       35      35      
53      53       44      44      
54      54       53      53      
64      64       54      54      
