title = " tecplot file for process Mesh " 
variables = "x",  "y", "z", "cell_type" 
zone N = 155 E = 180 DATAPACKING = BLOCK,  VARLOCATION = ([4]=CELLCENTERED), ZONETYPE=FEQUADRILATERAL 
9.687500e-01     
1.000000e+00     9.687500e-01     1.000000e+00     9.687500e-01     1.000000e+00     
9.687500e-01     1.000000e+00     9.687500e-01     1.000000e+00     9.687500e-01     
1.000000e+00     9.687500e-01     1.000000e+00     9.687500e-01     1.000000e+00     
9.687500e-01     1.000000e+00     9.687500e-01     1.000000e+00     9.687500e-01     
9.375000e-01     9.375000e-01     9.375000e-01     9.375000e-01     9.375000e-01     
9.375000e-01     9.375000e-01     9.375000e-01     9.375000e-01     9.375000e-01     
9.375000e-01     9.062500e-01     9.062500e-01     9.062500e-01     9.062500e-01     
9.062500e-01     9.062500e-01     9.062500e-01     9.062500e-01     9.062500e-01     
9.062500e-01     9.062500e-01     8.750000e-01     8.750000e-01     8.750000e-01     
8.750000e-01     8.750000e-01     8.750000e-01     8.750000e-01     8.750000e-01     
8.750000e-01     8.750000e-01     8.750000e-01     8.437500e-01     8.437500e-01     
8.437500e-01     8.437500e-01     8.437500e-01     8.437500e-01     8.437500e-01     
8.437500e-01     8.437500e-01     8.437500e-01     8.437500e-01     8.437500e-01     
8.437500e-01     8.125000e-01     8.125000e-01     8.125000e-01     8.125000e-01     
8.125000e-01     8.125000e-01     8.125000e-01     8.125000e-01     8.125000e-01     
8.125000e-01     8.125000e-01     8.125000e-01     8.125000e-01     7.812500e-01     
7.812500e-01     7.812500e-01     7.812500e-01     7.812500e-01     7.812500e-01     
7.812500e-01     7.812500e-01     7.812500e-01     7.812500e-01     7.812500e-01     
7.812500e-01     7.812500e-01     7.500000e-01     7.500000e-01     7.500000e-01     
7.500000e-01     7.500000e-01     7.500000e-01     7.500000e-01     7.500000e-01     
7.500000e-01     7.500000e-01     7.500000e-01     7.500000e-01     7.500000e-01     
7.187500e-01     7.187500e-01     7.187500e-01     7.187500e-01     7.187500e-01     
7.187500e-01     7.187500e-01     7.187500e-01     7.187500e-01     7.187500e-01     
7.187500e-01     7.187500e-01     7.187500e-01     6.875000e-01     6.875000e-01     
6.875000e-01     6.875000e-01     6.875000e-01     6.875000e-01     6.875000e-01     
6.875000e-01     6.875000e-01     6.875000e-01     6.875000e-01     6.875000e-01     
6.562500e-01     6.562500e-01     6.562500e-01     6.562500e-01     6.562500e-01     
6.562500e-01     6.562500e-01     6.250000e-01     6.250000e-01     6.250000e-01     
6.250000e-01     6.250000e-01     6.250000e-01     6.250000e-01     5.937500e-01     
5.937500e-01     5.937500e-01     5.937500e-01     5.937500e-01     5.937500e-01     
5.937500e-01     5.625000e-01     5.625000e-01     1.000000e+00     
3.125000e-01     
3.125000e-01     2.812500e-01     2.812500e-01     2.500000e-01     2.500000e-01     
2.187500e-01     2.187500e-01     1.875000e-01     1.875000e-01     1.562500e-01     
1.562500e-01     1.250000e-01     1.250000e-01     9.375000e-02     9.375000e-02     
6.250000e-02     6.250000e-02     3.125000e-02     3.125000e-02     0.000000e+00     
3.125000e-01     2.812500e-01     2.500000e-01     2.187500e-01     1.875000e-01     
1.562500e-01     1.250000e-01     9.375000e-02     6.250000e-02     3.125000e-02     
0.000000e+00     3.125000e-01     2.812500e-01     2.500000e-01     2.187500e-01     
1.875000e-01     1.562500e-01     1.250000e-01     9.375000e-02     6.250000e-02     
3.125000e-02     0.000000e+00     3.125000e-01     2.812500e-01     2.500000e-01     
2.187500e-01     1.875000e-01     1.562500e-01     1.250000e-01     9.375000e-02     
6.250000e-02     3.125000e-02     0.000000e+00     3.750000e-01     3.437500e-01     
3.125000e-01     2.812500e-01     2.500000e-01     2.187500e-01     1.875000e-01     
1.562500e-01     1.250000e-01     9.375000e-02     6.250000e-02     3.125000e-02     
0.000000e+00     3.750000e-01     3.437500e-01     3.125000e-01     2.812500e-01     
2.500000e-01     2.187500e-01     1.875000e-01     1.562500e-01     1.250000e-01     
9.375000e-02     6.250000e-02     3.125000e-02     0.000000e+00     3.750000e-01     
3.437500e-01     3.125000e-01     2.812500e-01     2.500000e-01     2.187500e-01     
1.875000e-01     1.562500e-01     1.250000e-01     9.375000e-02     6.250000e-02     
3.125000e-02     0.000000e+00     3.750000e-01     3.437500e-01     3.125000e-01     
2.812500e-01     2.500000e-01     2.187500e-01     1.875000e-01     1.562500e-01     
1.250000e-01     9.375000e-02     6.250000e-02     3.125000e-02     0.000000e+00     
3.750000e-01     3.437500e-01     3.125000e-01     2.812500e-01     2.500000e-01     
2.187500e-01     1.875000e-01     1.562500e-01     1.250000e-01     9.375000e-02     
6.250000e-02     3.125000e-02     0.000000e+00     3.437500e-01     3.125000e-01     
2.812500e-01     2.500000e-01     2.187500e-01     1.875000e-01     1.562500e-01     
1.250000e-01     9.375000e-02     6.250000e-02     3.125000e-02     0.000000e+00     
1.875000e-01     1.562500e-01     1.250000e-01     9.375000e-02     6.250000e-02     
3.125000e-02     0.000000e+00     1.875000e-01     1.562500e-01     1.250000e-01     
9.375000e-02     6.250000e-02     3.125000e-02     0.000000e+00     1.875000e-01     
1.562500e-01     1.250000e-01     9.375000e-02     6.250000e-02     3.125000e-02     
0.000000e+00     3.125000e-02     0.000000e+00     0.000000e+00     
0.000000e+00     
0.000000e+00     0.000000e+00     0.000000e+00     0.000000e+00     0.000000e+00     
0.000000e+00     0.000000e+00     0.000000e+00     0.000000e+00     0.000000e+00     
0.000000e+00     0.000000e+00     0.000000e+00     0.000000e+00     0.000000e+00     
0.000000e+00     0.000000e+00     0.000000e+00     0.000000e+00     0.000000e+00     
0.000000e+00     0.000000e+00     0.000000e+00     0.000000e+00     0.000000e+00     
0.000000e+00     0.000000e+00     0.000000e+00     0.000000e+00     0.000000e+00     
0.000000e+00     0.000000e+00     0.000000e+00     0.000000e+00     0.000000e+00     
0.000000e+00     0.000000e+00     0.000000e+00     0.000000e+00     0.000000e+00     
0.000000e+00     0.000000e+00     0.000000e+00     0.000000e+00     0.000000e+00     
0.000000e+00     0.000000e+00     0.000000e+00     0.000000e+00     0.000000e+00     
0.000000e+00     0.000000e+00     0.000000e+00     0.000000e+00     0.000000e+00     
0.000000e+00     0.000000e+00     0.000000e+00     0.000000e+00     0.000000e+00     
0.000000e+00     0.000000e+00     0.000000e+00     0.000000e+00     0.000000e+00     
0.000000e+00     0.000000e+00     0.000000e+00     0.000000e+00     0.000000e+00     
0.000000e+00     0.000000e+00     0.000000e+00     0.000000e+00     0.000000e+00     
0.000000e+00     0.000000e+00     0.000000e+00     0.000000e+00     0.000000e+00     
0.000000e+00     0.000000e+00     0.000000e+00     0.000000e+00     0.000000e+00     
0.000000e+00     0.000000e+00     0.000000e+00     0.000000e+00     0.000000e+00     
0.000000e+00     0.000000e+00     0.000000e+00     0.000000e+00     0.000000e+00     
0.000000e+00     0.000000e+00     0.000000e+00     0.000000e+00     0.000000e+00     
0.000000e+00     0.000000e+00     0.000000e+00     0.000000e+00     0.000000e+00     
0.000000e+00     0.000000e+00     0.000000e+00     0.000000e+00     0.000000e+00     
0.000000e+00     0.000000e+00     0.000000e+00     0.000000e+00     0.000000e+00     
0.000000e+00     0.000000e+00     0.000000e+00     0.000000e+00     0.000000e+00     
0.000000e+00     0.000000e+00     0.000000e+00     0.000000e+00     0.000000e+00     
0.000000e+00     0.000000e+00     0.000000e+00     0.000000e+00     0.000000e+00     
0.000000e+00     0.000000e+00     0.000000e+00     0.000000e+00     0.000000e+00     
0.000000e+00     0.000000e+00     0.000000e+00     0.000000e+00     0.000000e+00     
0.000000e+00     0.000000e+00     0.000000e+00     0.000000e+00     0.000000e+00     
0.000000e+00     0.000000e+00     0.000000e+00     0.000000e+00     0.000000e+00     
0.000000e+00     0.000000e+00     0.000000e+00     0.000000e+00     

0      
0      0      0      0      0      0      0      0      0      0      
0      0      0      0      0      0      0      0      0      0      
0      0      0      0      0      0      0      0      0      0      
0      0      0      0      0      0      0      0      0      0      
0      0      0      0      0      0      0      0      0      0      
0      0      0      0      0      0      0      0      0      0      
0      0      0      0      0      0      0      0      0      0      
0      0      0      0      0      0      0      0      0      0      
0      0      0      0      0      0      0      0      0      0      
0      0      0      0      0      0      0      0      0      0      
0      0      0      0      0      0      0      0      0      0      
0      0      0      0      0      0      0      0      0      0      
0      0      0      0      0      0      0      1      1      1      
1      1      1      1      1      1      1      1      1      1      
1      1      1      1      1      1      1      1      1      1      
1      1      1      1      1      1      1      1      1      1      
1      1      1      1      1      1      1      1      1      1      
1      1      1      1      1      1      1      1      1      

3      4      2      1      
4      3      5      6      
3      1      22      23      
6      5      7      8      
5      3      23      24      
8      7      9      10      
7      5      24      25      
10      9      11      12      
9      7      25      26      
12      11      13      14      
11      9      26      27      
14      13      15      16      
13      11      27      28      
16      15      17      18      
15      13      28      29      
18      17      19      20      
17      15      29      30      
20      19      21      155      
19      17      30      31      
21      19      31      32      
23      22      33      34      
24      23      34      35      
25      24      35      36      
26      25      36      37      
27      26      37      38      
28      27      38      39      
29      28      39      40      
30      29      40      41      
31      30      41      42      
32      31      42      43      
34      33      44      45      
35      34      45      46      
36      35      46      47      
37      36      47      48      
38      37      48      49      
39      38      49      50      
40      39      50      51      
41      40      51      52      
42      41      52      53      
43      42      53      54      
45      44      57      58      
46      45      58      59      
47      46      59      60      
48      47      60      61      
49      48      61      62      
50      49      62      63      
51      50      63      64      
52      51      64      65      
53      52      65      66      
54      53      66      67      
58      57      70      71      
59      58      71      72      
60      59      72      73      
61      60      73      74      
62      61      74      75      
63      62      75      76      
64      63      76      77      
65      64      77      78      
66      65      78      79      
67      66      79      80      
69      56      55      68      
56      69      70      57      
69      68      81      82      
70      69      82      83      
71      70      83      84      
72      71      84      85      
73      72      85      86      
74      73      86      87      
75      74      87      88      
76      75      88      89      
77      76      89      90      
78      77      90      91      
79      78      91      92      
80      79      92      93      
82      81      94      95      
83      82      95      96      
84      83      96      97      
85      84      97      98      
86      85      98      99      
87      86      99      100      
88      87      100      101      
89      88      101      102      
90      89      102      103      
91      90      103      104      
92      91      104      105      
93      92      105      106      
95      94      107      108      
96      95      108      109      
97      96      109      110      
98      97      110      111      
99      98      111      112      
100      99      112      113      
101      100      113      114      
102      101      114      115      
103      102      115      116      
104      103      116      117      
105      104      117      118      
106      105      118      119      
109      108      120      121      
110      109      121      122      
111      110      122      123      
112      111      123      124      
113      112      124      125      
114      113      125      126      
115      114      126      127      
116      115      127      128      
117      116      128      129      
118      117      129      130      
119      118      130      131      
126      125      132      133      
127      126      133      134      
128      127      134      135      
129      128      135      136      
130      129      136      137      
131      130      137      138      
133      132      139      140      
134      133      140      141      
135      134      141      142      
136      135      142      143      
137      136      143      144      
138      137      144      145      
140      139      146      147      
141      140      147      148      
142      141      148      149      
143      142      149      150      
144      143      150      151      
145      144      151      152      
152      151      153      154      
4      4       2      2      
6      6       4      4      
8      8       6      6      
10      10       8      8      
12      12       10      10      
14      14       12      12      
16      16       14      14      
18      18       16      16      
20      20       18      18      
155      155       20      20      
21      21       155      155      
32      32       21      21      
43      43       32      32      
54      54       43      43      
67      67       54      54      
80      80       67      67      
93      93       80      80      
106      106       93      93      
119      119       106      106      
131      131       119      119      
138      138       131      131      
145      145       138      138      
152      152       145      145      
154      154       152      152      
2      2       1      1      
1      1       22      22      
22      22       33      33      
33      33       44      44      
56      56       55      55      
44      44       57      57      
57      57       56      56      
55      55       68      68      
68      68       81      81      
81      81       94      94      
94      94       107      107      
107      107       108      108      
108      108       120      120      
120      120       121      121      
121      121       122      122      
122      122       123      123      
123      123       124      124      
124      124       125      125      
125      125       132      132      
132      132       139      139      
139      139       146      146      
146      146       147      147      
147      147       148      148      
148      148       149      149      
149      149       150      150      
150      150       151      151      
151      151       153      153      
153      153       154      154      
