title = " tecplot file for process Mesh " 
variables = "x",  "y", "z", "cell_type" 
zone N = 156 E = 182 DATAPACKING = BLOCK,  VARLOCATION = ([4]=CELLCENTERED), ZONETYPE=FEQUADRILATERAL 
3.750000e-01     
3.750000e-01     3.750000e-01     3.750000e-01     3.750000e-01     3.437500e-01     
3.437500e-01     3.437500e-01     3.437500e-01     3.437500e-01     3.437500e-01     
3.437500e-01     3.437500e-01     3.437500e-01     3.437500e-01     3.437500e-01     
3.437500e-01     3.437500e-01     3.437500e-01     3.125000e-01     3.125000e-01     
3.125000e-01     3.125000e-01     3.125000e-01     3.125000e-01     3.125000e-01     
3.125000e-01     3.125000e-01     3.125000e-01     3.125000e-01     3.125000e-01     
3.125000e-01     3.125000e-01     3.125000e-01     2.812500e-01     2.812500e-01     
2.812500e-01     2.812500e-01     2.812500e-01     2.812500e-01     2.812500e-01     
2.812500e-01     2.812500e-01     2.812500e-01     2.812500e-01     2.812500e-01     
2.812500e-01     2.812500e-01     2.812500e-01     2.500000e-01     2.500000e-01     
2.500000e-01     2.500000e-01     2.500000e-01     2.500000e-01     2.500000e-01     
2.500000e-01     2.500000e-01     2.500000e-01     2.500000e-01     2.500000e-01     
2.500000e-01     2.500000e-01     2.187500e-01     2.187500e-01     2.187500e-01     
2.187500e-01     2.187500e-01     2.187500e-01     2.187500e-01     2.187500e-01     
2.187500e-01     2.187500e-01     2.187500e-01     2.187500e-01     1.875000e-01     
1.875000e-01     1.875000e-01     1.875000e-01     1.875000e-01     1.875000e-01     
1.875000e-01     1.875000e-01     1.875000e-01     1.875000e-01     1.875000e-01     
1.875000e-01     1.562500e-01     1.562500e-01     1.562500e-01     1.562500e-01     
1.562500e-01     1.562500e-01     1.562500e-01     1.562500e-01     1.562500e-01     
1.562500e-01     1.562500e-01     1.562500e-01     1.250000e-01     1.250000e-01     
1.250000e-01     1.250000e-01     1.250000e-01     1.250000e-01     1.250000e-01     
1.250000e-01     1.250000e-01     1.250000e-01     1.250000e-01     9.375000e-02     
9.375000e-02     9.375000e-02     9.375000e-02     9.375000e-02     9.375000e-02     
9.375000e-02     9.375000e-02     9.375000e-02     9.375000e-02     9.375000e-02     
6.250000e-02     6.250000e-02     6.250000e-02     6.250000e-02     6.250000e-02     
6.250000e-02     6.250000e-02     6.250000e-02     6.250000e-02     6.250000e-02     
6.250000e-02     3.125000e-02     3.125000e-02     3.125000e-02     3.125000e-02     
3.125000e-02     3.125000e-02     3.125000e-02     3.125000e-02     3.125000e-02     
3.125000e-02     3.125000e-02     3.125000e-02     0.000000e+00     0.000000e+00     
0.000000e+00     0.000000e+00     0.000000e+00     0.000000e+00     0.000000e+00     
0.000000e+00     0.000000e+00     0.000000e+00     0.000000e+00     0.000000e+00     

4.062500e-01     
3.750000e-01     3.437500e-01     3.125000e-01     2.812500e-01     4.062500e-01     
4.375000e-01     3.750000e-01     3.437500e-01     3.125000e-01     2.812500e-01     
2.500000e-01     2.187500e-01     1.875000e-01     1.562500e-01     1.250000e-01     
9.375000e-02     6.250000e-02     3.125000e-02     4.375000e-01     4.062500e-01     
3.750000e-01     3.437500e-01     3.125000e-01     2.812500e-01     2.500000e-01     
2.187500e-01     1.875000e-01     1.562500e-01     1.250000e-01     9.375000e-02     
6.250000e-02     3.125000e-02     0.000000e+00     4.375000e-01     4.062500e-01     
3.750000e-01     3.437500e-01     3.125000e-01     2.812500e-01     2.500000e-01     
2.187500e-01     1.875000e-01     1.562500e-01     1.250000e-01     9.375000e-02     
6.250000e-02     3.125000e-02     0.000000e+00     4.062500e-01     3.750000e-01     
3.437500e-01     3.125000e-01     2.812500e-01     2.500000e-01     2.187500e-01     
1.875000e-01     1.562500e-01     1.250000e-01     9.375000e-02     6.250000e-02     
3.125000e-02     0.000000e+00     3.437500e-01     3.125000e-01     2.812500e-01     
2.500000e-01     2.187500e-01     1.875000e-01     1.562500e-01     1.250000e-01     
9.375000e-02     6.250000e-02     3.125000e-02     0.000000e+00     3.437500e-01     
3.125000e-01     2.812500e-01     2.500000e-01     2.187500e-01     1.875000e-01     
1.562500e-01     1.250000e-01     9.375000e-02     6.250000e-02     3.125000e-02     
0.000000e+00     3.437500e-01     3.125000e-01     2.812500e-01     2.500000e-01     
2.187500e-01     1.875000e-01     1.562500e-01     1.250000e-01     9.375000e-02     
6.250000e-02     3.125000e-02     0.000000e+00     3.125000e-01     2.812500e-01     
2.500000e-01     2.187500e-01     1.875000e-01     1.562500e-01     1.250000e-01     
9.375000e-02     6.250000e-02     3.125000e-02     0.000000e+00     3.125000e-01     
2.812500e-01     2.500000e-01     2.187500e-01     1.875000e-01     1.562500e-01     
1.250000e-01     9.375000e-02     6.250000e-02     3.125000e-02     0.000000e+00     
3.125000e-01     2.812500e-01     2.500000e-01     2.187500e-01     1.875000e-01     
1.562500e-01     1.250000e-01     9.375000e-02     6.250000e-02     3.125000e-02     
0.000000e+00     3.125000e-01     3.437500e-01     2.812500e-01     2.500000e-01     
2.187500e-01     1.875000e-01     1.562500e-01     1.250000e-01     9.375000e-02     
6.250000e-02     3.125000e-02     0.000000e+00     3.437500e-01     3.125000e-01     
2.812500e-01     2.500000e-01     2.187500e-01     1.875000e-01     1.562500e-01     
1.250000e-01     9.375000e-02     6.250000e-02     3.125000e-02     0.000000e+00     

0.000000e+00     
0.000000e+00     0.000000e+00     0.000000e+00     0.000000e+00     0.000000e+00     
0.000000e+00     0.000000e+00     0.000000e+00     0.000000e+00     0.000000e+00     
0.000000e+00     0.000000e+00     0.000000e+00     0.000000e+00     0.000000e+00     
0.000000e+00     0.000000e+00     0.000000e+00     0.000000e+00     0.000000e+00     
0.000000e+00     0.000000e+00     0.000000e+00     0.000000e+00     0.000000e+00     
0.000000e+00     0.000000e+00     0.000000e+00     0.000000e+00     0.000000e+00     
0.000000e+00     0.000000e+00     0.000000e+00     0.000000e+00     0.000000e+00     
0.000000e+00     0.000000e+00     0.000000e+00     0.000000e+00     0.000000e+00     
0.000000e+00     0.000000e+00     0.000000e+00     0.000000e+00     0.000000e+00     
0.000000e+00     0.000000e+00     0.000000e+00     0.000000e+00     0.000000e+00     
0.000000e+00     0.000000e+00     0.000000e+00     0.000000e+00     0.000000e+00     
0.000000e+00     0.000000e+00     0.000000e+00     0.000000e+00     0.000000e+00     
0.000000e+00     0.000000e+00     0.000000e+00     0.000000e+00     0.000000e+00     
0.000000e+00     0.000000e+00     0.000000e+00     0.000000e+00     0.000000e+00     
0.000000e+00     0.000000e+00     0.000000e+00     0.000000e+00     0.000000e+00     
0.000000e+00     0.000000e+00     0.000000e+00     0.000000e+00     0.000000e+00     
0.000000e+00     0.000000e+00     0.000000e+00     0.000000e+00     0.000000e+00     
0.000000e+00     0.000000e+00     0.000000e+00     0.000000e+00     0.000000e+00     
0.000000e+00     0.000000e+00     0.000000e+00     0.000000e+00     0.000000e+00     
0.000000e+00     0.000000e+00     0.000000e+00     0.000000e+00     0.000000e+00     
0.000000e+00     0.000000e+00     0.000000e+00     0.000000e+00     0.000000e+00     
0.000000e+00     0.000000e+00     0.000000e+00     0.000000e+00     0.000000e+00     
0.000000e+00     0.000000e+00     0.000000e+00     0.000000e+00     0.000000e+00     
0.000000e+00     0.000000e+00     0.000000e+00     0.000000e+00     0.000000e+00     
0.000000e+00     0.000000e+00     0.000000e+00     0.000000e+00     0.000000e+00     
0.000000e+00     0.000000e+00     0.000000e+00     0.000000e+00     0.000000e+00     
0.000000e+00     0.000000e+00     0.000000e+00     0.000000e+00     0.000000e+00     
0.000000e+00     0.000000e+00     0.000000e+00     0.000000e+00     0.000000e+00     
0.000000e+00     0.000000e+00     0.000000e+00     0.000000e+00     0.000000e+00     
0.000000e+00     0.000000e+00     0.000000e+00     0.000000e+00     0.000000e+00     
0.000000e+00     0.000000e+00     0.000000e+00     0.000000e+00     0.000000e+00     


0      
0      0      0      0      0      0      0      0      0      0      
0      0      0      0      0      0      0      0      0      0      
0      0      0      0      0      0      0      0      0      0      
0      0      0      0      0      0      0      0      0      0      
0      0      0      0      0      0      0      0      0      0      
0      0      0      0      0      0      0      0      0      0      
0      0      0      0      0      0      0      0      0      0      
0      0      0      0      0      0      0      0      0      0      
0      0      0      0      0      0      0      0      0      0      
0      0      0      0      0      0      0      0      0      0      
0      0      0      0      0      0      0      0      0      0      
0      0      0      0      0      0      0      0      0      0      
0      0      0      0      0      0      0      1      1      1      
1      1      1      1      1      1      1      1      1      1      
1      1      1      1      1      1      1      1      1      1      
1      1      1      1      1      1      1      1      1      1      
1      1      1      1      1      1      1      1      1      1      
1      1      1      1      1      1      1      1      1      1      
1      

8      2      1      6      
2      8      9      3      
8      6      21      22      
3      9      10      4      
9      8      22      23      
4      10      11      5      
10      9      23      24      
11      10      24      25      
21      6      7      20      
21      20      35      36      
22      21      36      37      
23      22      37      38      
24      23      38      39      
11      25      26      12      
25      24      39      40      
12      26      27      13      
26      25      40      41      
13      27      28      14      
27      26      41      42      
14      28      29      15      
28      27      42      43      
15      29      30      16      
29      28      43      44      
16      30      31      17      
30      29      44      45      
17      31      32      18      
31      30      45      46      
18      32      33      19      
32      31      46      47      
33      32      47      48      
37      36      50      51      
38      37      51      52      
39      38      52      53      
40      39      53      54      
41      40      54      55      
42      41      55      56      
43      42      56      57      
44      43      57      58      
45      44      58      59      
46      45      59      60      
47      46      60      61      
33      48      49      34      
48      47      61      62      
49      48      62      63      
53      52      64      65      
54      53      65      66      
55      54      66      67      
56      55      67      68      
57      56      68      69      
58      57      69      70      
59      58      70      71      
60      59      71      72      
61      60      72      73      
62      61      73      74      
63      62      74      75      
65      64      76      77      
66      65      77      78      
67      66      78      79      
68      67      79      80      
69      68      80      81      
70      69      81      82      
71      70      82      83      
72      71      83      84      
73      72      84      85      
74      73      85      86      
75      74      86      87      
77      76      88      89      
78      77      89      90      
79      78      90      91      
80      79      91      92      
81      80      92      93      
82      81      93      94      
83      82      94      95      
84      83      95      96      
85      84      96      97      
86      85      97      98      
87      86      98      99      
90      89      100      101      
91      90      101      102      
92      91      102      103      
93      92      103      104      
94      93      104      105      
95      94      105      106      
96      95      106      107      
97      96      107      108      
98      97      108      109      
99      98      109      110      
101      100      111      112      
102      101      112      113      
103      102      113      114      
104      103      114      115      
105      104      115      116      
106      105      116      117      
107      106      117      118      
108      107      118      119      
109      108      119      120      
110      109      120      121      
112      111      122      123      
113      112      123      124      
114      113      124      125      
115      114      125      126      
116      115      126      127      
117      116      127      128      
118      117      128      129      
119      118      129      130      
120      119      130      131      
121      120      131      132      
123      122      133      135      
124      123      135      136      
125      124      136      137      
126      125      137      138      
127      126      138      139      
128      127      139      140      
129      128      140      141      
130      129      141      142      
131      130      142      143      
132      131      143      144      
135      133      146      147      
136      135      147      148      
137      136      148      149      
138      137      149      150      
139      138      150      151      
140      139      151      152      
141      140      152      153      
142      141      153      154      
143      142      154      155      
144      143      155      156      
146      133      134      145      
49      49       34      34      
63      63       49      49      
75      75       63      63      
87      87       75      75      
99      99       87      87      
110      110       99      99      
121      121       110      110      
132      132       121      121      
144      144       132      132      
156      156       144      144      
145      145       146      146      
146      146       147      147      
147      147       148      148      
148      148       149      149      
149      149       150      150      
150      150       151      151      
151      151       152      152      
152      152       153      153      
153      153       154      154      
154      154       155      155      
155      155       156      156      
1      1       6      6      
6      6       7      7      
7      7       20      20      
20      20       35      35      
35      35       36      36      
36      36       50      50      
50      50       51      51      
51      51       52      52      
52      52       64      64      
64      64       76      76      
76      76       88      88      
88      88       89      89      
89      89       100      100      
100      100       111      111      
111      111       122      122      
122      122       133      133      
133      133       134      134      
134      134       145      145      
2      2       1      1      
3      3       2      2      
4      4       3      3      
5      5       4      4      
11      11       5      5      
12      12       11      11      
13      13       12      12      
14      14       13      13      
15      15       14      14      
16      16       15      15      
17      17       16      16      
18      18       17      17      
19      19       18      18      
33      33       19      19      
34      34       33      33      
