title = " tecplot file for process Mesh " 
variables = "x",  "y", "z", "cell_type" 
zone N = 153 E = 176 DATAPACKING = BLOCK,  VARLOCATION = ([4]=CELLCENTERED), ZONETYPE=FEQUADRILATERAL 
9.687500e-01     
1.000000e+00     9.687500e-01     1.000000e+00     9.687500e-01     1.000000e+00     
9.687500e-01     1.000000e+00     9.687500e-01     1.000000e+00     9.687500e-01     
1.000000e+00     9.687500e-01     1.000000e+00     9.687500e-01     1.000000e+00     
9.687500e-01     1.000000e+00     9.687500e-01     1.000000e+00     9.687500e-01     
1.000000e+00     9.687500e-01     1.000000e+00     9.687500e-01     1.000000e+00     
9.687500e-01     1.000000e+00     9.687500e-01     1.000000e+00     9.687500e-01     
1.000000e+00     9.687500e-01     9.375000e-01     9.375000e-01     9.375000e-01     
9.375000e-01     9.375000e-01     9.375000e-01     9.375000e-01     9.375000e-01     
9.375000e-01     9.375000e-01     9.375000e-01     9.375000e-01     9.375000e-01     
9.375000e-01     9.375000e-01     9.375000e-01     9.375000e-01     9.062500e-01     
9.062500e-01     9.062500e-01     9.062500e-01     9.062500e-01     9.062500e-01     
9.062500e-01     9.062500e-01     9.062500e-01     9.062500e-01     9.062500e-01     
9.062500e-01     9.062500e-01     9.062500e-01     9.062500e-01     9.062500e-01     
9.062500e-01     8.750000e-01     8.750000e-01     8.750000e-01     8.750000e-01     
8.750000e-01     8.750000e-01     8.750000e-01     8.750000e-01     8.750000e-01     
8.750000e-01     8.750000e-01     8.750000e-01     8.750000e-01     8.750000e-01     
8.750000e-01     8.750000e-01     8.750000e-01     8.437500e-01     8.437500e-01     
8.437500e-01     8.437500e-01     8.437500e-01     8.437500e-01     8.437500e-01     
8.437500e-01     8.437500e-01     8.437500e-01     8.437500e-01     8.437500e-01     
8.437500e-01     8.437500e-01     8.437500e-01     8.437500e-01     8.437500e-01     
8.125000e-01     8.125000e-01     8.125000e-01     8.125000e-01     8.125000e-01     
8.125000e-01     8.125000e-01     8.125000e-01     8.125000e-01     8.125000e-01     
8.125000e-01     8.125000e-01     8.125000e-01     8.125000e-01     8.125000e-01     
8.125000e-01     8.125000e-01     7.812500e-01     7.812500e-01     7.812500e-01     
7.812500e-01     7.812500e-01     7.812500e-01     7.812500e-01     7.812500e-01     
7.812500e-01     7.812500e-01     7.812500e-01     7.812500e-01     7.812500e-01     
7.812500e-01     7.812500e-01     7.812500e-01     7.812500e-01     7.500000e-01     
7.500000e-01     7.500000e-01     7.500000e-01     7.500000e-01     7.500000e-01     
7.500000e-01     7.500000e-01     7.500000e-01     7.500000e-01     7.500000e-01     
7.500000e-01     7.500000e-01     7.500000e-01     7.500000e-01     7.500000e-01     
7.500000e-01     1.000000e+00     
5.000000e-01     
5.000000e-01     4.687500e-01     4.687500e-01     4.375000e-01     4.375000e-01     
4.062500e-01     4.062500e-01     3.750000e-01     3.750000e-01     3.437500e-01     
3.437500e-01     3.125000e-01     3.125000e-01     2.812500e-01     2.812500e-01     
2.500000e-01     2.500000e-01     2.187500e-01     2.187500e-01     1.875000e-01     
1.875000e-01     1.562500e-01     1.562500e-01     1.250000e-01     1.250000e-01     
9.375000e-02     9.375000e-02     6.250000e-02     6.250000e-02     3.125000e-02     
3.125000e-02     0.000000e+00     5.000000e-01     4.687500e-01     4.375000e-01     
4.062500e-01     3.750000e-01     3.437500e-01     3.125000e-01     2.812500e-01     
2.500000e-01     2.187500e-01     1.875000e-01     1.562500e-01     1.250000e-01     
9.375000e-02     6.250000e-02     3.125000e-02     0.000000e+00     5.000000e-01     
4.687500e-01     4.375000e-01     4.062500e-01     3.750000e-01     3.437500e-01     
3.125000e-01     2.812500e-01     2.500000e-01     2.187500e-01     1.875000e-01     
1.562500e-01     1.250000e-01     9.375000e-02     6.250000e-02     3.125000e-02     
0.000000e+00     5.000000e-01     4.687500e-01     4.375000e-01     4.062500e-01     
3.750000e-01     3.437500e-01     3.125000e-01     2.812500e-01     2.500000e-01     
2.187500e-01     1.875000e-01     1.562500e-01     1.250000e-01     9.375000e-02     
6.250000e-02     3.125000e-02     0.000000e+00     5.000000e-01     4.687500e-01     
4.375000e-01     4.062500e-01     3.750000e-01     3.437500e-01     3.125000e-01     
2.812500e-01     2.500000e-01     2.187500e-01     1.875000e-01     1.562500e-01     
1.250000e-01     9.375000e-02     6.250000e-02     3.125000e-02     0.000000e+00     
5.000000e-01     4.687500e-01     4.375000e-01     4.062500e-01     3.750000e-01     
3.437500e-01     3.125000e-01     2.812500e-01     2.500000e-01     2.187500e-01     
1.875000e-01     1.562500e-01     1.250000e-01     9.375000e-02     6.250000e-02     
3.125000e-02     0.000000e+00     5.000000e-01     4.687500e-01     4.375000e-01     
4.062500e-01     3.750000e-01     3.437500e-01     3.125000e-01     2.812500e-01     
2.500000e-01     2.187500e-01     1.875000e-01     1.562500e-01     1.250000e-01     
9.375000e-02     6.250000e-02     3.125000e-02     0.000000e+00     5.000000e-01     
4.687500e-01     4.375000e-01     4.062500e-01     3.750000e-01     3.437500e-01     
3.125000e-01     2.812500e-01     2.500000e-01     2.187500e-01     1.875000e-01     
1.562500e-01     1.250000e-01     9.375000e-02     6.250000e-02     3.125000e-02     
0.000000e+00     0.000000e+00     
0.000000e+00     
0.000000e+00     0.000000e+00     0.000000e+00     0.000000e+00     0.000000e+00     
0.000000e+00     0.000000e+00     0.000000e+00     0.000000e+00     0.000000e+00     
0.000000e+00     0.000000e+00     0.000000e+00     0.000000e+00     0.000000e+00     
0.000000e+00     0.000000e+00     0.000000e+00     0.000000e+00     0.000000e+00     
0.000000e+00     0.000000e+00     0.000000e+00     0.000000e+00     0.000000e+00     
0.000000e+00     0.000000e+00     0.000000e+00     0.000000e+00     0.000000e+00     
0.000000e+00     0.000000e+00     0.000000e+00     0.000000e+00     0.000000e+00     
0.000000e+00     0.000000e+00     0.000000e+00     0.000000e+00     0.000000e+00     
0.000000e+00     0.000000e+00     0.000000e+00     0.000000e+00     0.000000e+00     
0.000000e+00     0.000000e+00     0.000000e+00     0.000000e+00     0.000000e+00     
0.000000e+00     0.000000e+00     0.000000e+00     0.000000e+00     0.000000e+00     
0.000000e+00     0.000000e+00     0.000000e+00     0.000000e+00     0.000000e+00     
0.000000e+00     0.000000e+00     0.000000e+00     0.000000e+00     0.000000e+00     
0.000000e+00     0.000000e+00     0.000000e+00     0.000000e+00     0.000000e+00     
0.000000e+00     0.000000e+00     0.000000e+00     0.000000e+00     0.000000e+00     
0.000000e+00     0.000000e+00     0.000000e+00     0.000000e+00     0.000000e+00     
0.000000e+00     0.000000e+00     0.000000e+00     0.000000e+00     0.000000e+00     
0.000000e+00     0.000000e+00     0.000000e+00     0.000000e+00     0.000000e+00     
0.000000e+00     0.000000e+00     0.000000e+00     0.000000e+00     0.000000e+00     
0.000000e+00     0.000000e+00     0.000000e+00     0.000000e+00     0.000000e+00     
0.000000e+00     0.000000e+00     0.000000e+00     0.000000e+00     0.000000e+00     
0.000000e+00     0.000000e+00     0.000000e+00     0.000000e+00     0.000000e+00     
0.000000e+00     0.000000e+00     0.000000e+00     0.000000e+00     0.000000e+00     
0.000000e+00     0.000000e+00     0.000000e+00     0.000000e+00     0.000000e+00     
0.000000e+00     0.000000e+00     0.000000e+00     0.000000e+00     0.000000e+00     
0.000000e+00     0.000000e+00     0.000000e+00     0.000000e+00     0.000000e+00     
0.000000e+00     0.000000e+00     0.000000e+00     0.000000e+00     0.000000e+00     
0.000000e+00     0.000000e+00     0.000000e+00     0.000000e+00     0.000000e+00     
0.000000e+00     0.000000e+00     0.000000e+00     0.000000e+00     0.000000e+00     
0.000000e+00     0.000000e+00     0.000000e+00     0.000000e+00     0.000000e+00     
0.000000e+00     0.000000e+00     

0      
0      0      0      0      0      0      0      0      0      0      
0      0      0      0      0      0      0      0      0      0      
0      0      0      0      0      0      0      0      0      0      
0      0      0      0      0      0      0      0      0      0      
0      0      0      0      0      0      0      0      0      0      
0      0      0      0      0      0      0      0      0      0      
0      0      0      0      0      0      0      0      0      0      
0      0      0      0      0      0      0      0      0      0      
0      0      0      0      0      0      0      0      0      0      
0      0      0      0      0      0      0      0      0      0      
0      0      0      0      0      0      0      0      0      0      
0      0      0      0      0      0      0      0      0      0      
0      0      0      0      0      0      0      1      1      1      
1      1      1      1      1      1      1      1      1      1      
1      1      1      1      1      1      1      1      1      1      
1      1      1      1      1      1      1      1      1      1      
1      1      1      1      1      1      1      1      1      1      
1      1      1      1      1      

3      4      2      1      
4      3      5      6      
3      1      34      35      
6      5      7      8      
5      3      35      36      
8      7      9      10      
7      5      36      37      
10      9      11      12      
9      7      37      38      
12      11      13      14      
11      9      38      39      
14      13      15      16      
13      11      39      40      
16      15      17      18      
15      13      40      41      
18      17      19      20      
17      15      41      42      
20      19      21      22      
19      17      42      43      
22      21      23      24      
21      19      43      44      
24      23      25      26      
23      21      44      45      
26      25      27      28      
25      23      45      46      
28      27      29      30      
27      25      46      47      
30      29      31      32      
29      27      47      48      
32      31      33      153      
31      29      48      49      
33      31      49      50      
35      34      51      52      
36      35      52      53      
37      36      53      54      
38      37      54      55      
39      38      55      56      
40      39      56      57      
41      40      57      58      
42      41      58      59      
43      42      59      60      
44      43      60      61      
45      44      61      62      
46      45      62      63      
47      46      63      64      
48      47      64      65      
49      48      65      66      
50      49      66      67      
52      51      68      69      
53      52      69      70      
54      53      70      71      
55      54      71      72      
56      55      72      73      
57      56      73      74      
58      57      74      75      
59      58      75      76      
60      59      76      77      
61      60      77      78      
62      61      78      79      
63      62      79      80      
64      63      80      81      
65      64      81      82      
66      65      82      83      
67      66      83      84      
69      68      85      86      
70      69      86      87      
71      70      87      88      
72      71      88      89      
73      72      89      90      
74      73      90      91      
75      74      91      92      
76      75      92      93      
77      76      93      94      
78      77      94      95      
79      78      95      96      
80      79      96      97      
81      80      97      98      
82      81      98      99      
83      82      99      100      
84      83      100      101      
86      85      102      103      
87      86      103      104      
88      87      104      105      
89      88      105      106      
90      89      106      107      
91      90      107      108      
92      91      108      109      
93      92      109      110      
94      93      110      111      
95      94      111      112      
96      95      112      113      
97      96      113      114      
98      97      114      115      
99      98      115      116      
100      99      116      117      
101      100      117      118      
103      102      119      120      
104      103      120      121      
105      104      121      122      
106      105      122      123      
107      106      123      124      
108      107      124      125      
109      108      125      126      
110      109      126      127      
111      110      127      128      
112      111      128      129      
113      112      129      130      
114      113      130      131      
115      114      131      132      
116      115      132      133      
117      116      133      134      
118      117      134      135      
120      119      136      137      
121      120      137      138      
122      121      138      139      
123      122      139      140      
124      123      140      141      
125      124      141      142      
126      125      142      143      
127      126      143      144      
128      127      144      145      
129      128      145      146      
130      129      146      147      
131      130      147      148      
132      131      148      149      
133      132      149      150      
134      133      150      151      
135      134      151      152      
153      153       32      32      
32      32       30      30      
30      30       28      28      
28      28       26      26      
26      26       24      24      
24      24       22      22      
22      22       20      20      
20      20       18      18      
18      18       16      16      
16      16       14      14      
14      14       12      12      
12      12       10      10      
10      10       8      8      
8      8       6      6      
6      6       4      4      
4      4       2      2      
152      152       135      135      
135      135       118      118      
118      118       101      101      
101      101       84      84      
84      84       67      67      
67      67       50      50      
50      50       33      33      
33      33       153      153      
136      136       137      137      
137      137       138      138      
138      138       139      139      
139      139       140      140      
140      140       141      141      
141      141       142      142      
142      142       143      143      
143      143       144      144      
144      144       145      145      
145      145       146      146      
146      146       147      147      
147      147       148      148      
148      148       149      149      
149      149       150      150      
150      150       151      151      
151      151       152      152      
2      2       1      1      
1      1       34      34      
34      34       51      51      
51      51       68      68      
68      68       85      85      
85      85       102      102      
102      102       119      119      
119      119       136      136      
