title = " tecplot file for process Mesh " 
variables = "x",  "y", "z", "cell_type" 
zone N = 5 E = 8 DATAPACKING = BLOCK,  VARLOCATION = ([4]=CELLCENTERED), ZONETYPE=FETRIANGLE 
7.500000e-01     
5.881301e-01     5.000000e-01     3.841613e-01     2.500000e-01     
1.000000e+00     
7.216039e-01     1.000000e+00     8.419365e-01     1.000000e+00     
0.000000e+00     
0.000000e+00     0.000000e+00     0.000000e+00     0.000000e+00     

0      
0      0      1      1      1      1      1      

3      2      1      
2      3      4      
4      3      5      
1      3       1      
3      5       3      
5      4       5      
4      2       4      
2      1       2      
