title = " tecplot file for process Mesh " 
variables = "x",  "y", "z", "cell_type" 
zone N = 5 E = 8 DATAPACKING = BLOCK,  VARLOCATION = ([4]=CELLCENTERED), ZONETYPE=FETRIANGLE 
1.000000e+00     
8.086026e-01     1.000000e+00     8.560590e-01     6.644424e-01     
0.000000e+00     
2.109754e-01     2.500000e-01     4.006476e-01     4.375980e-01     
0.000000e+00     
0.000000e+00     0.000000e+00     0.000000e+00     0.000000e+00     

0      
0      0      1      1      1      1      1      

3      2      1      
2      3      4      
2      4      5      
1      3       1      
3      4       3      
4      5       4      
2      1       2      
5      2       5      
