title = " tecplot file for process Mesh " 
variables = "x",  "y", "z", "cell_type" 
zone N = 5 E = 8 DATAPACKING = BLOCK,  VARLOCATION = ([4]=CELLCENTERED), ZONETYPE=FETRIANGLE 
0.000000e+00     
2.006144e-01     0.000000e+00     1.642394e-01     0.000000e+00     
0.000000e+00     
2.088080e-01     2.500000e-01     3.960724e-01     5.000000e-01     
0.000000e+00     
0.000000e+00     0.000000e+00     0.000000e+00     0.000000e+00     

0      
0      0      1      1      1      1      1      

2      3      1      
3      2      4      
3      4      5      
3      1       3      
5      3       5      
1      2       1      
2      4       2      
4      5       4      
