Title = " tecplot file for 2D Cavity problem " 
variables = "x", "y", "z", "velX", "cellCentroidY" 
Zone T = "nmesh0" N = 728 E = 500 DATAPACKING = BLOCK, VARLOCATION = ([4-5]=CELLCENTERED), ZONETYPE=FEBRICK
0.45    0.45    0.5    0.5    0.45    
0.5    0.45    0.5    0.45    0.5    
0.45    0.5    0.45    0.5    0.45    
0.5    0.45    0.5    0.45    0.5    
0.45    0.5    0.45    0.5    0.45    
0.5    0.45    0.5    0.45    0.5    
0.45    0.5    0.45    0.5    0.45    
0.5    0.45    0.5    0.45    0.5    
0.45    0.5    0.45    0.5    0.45    
0.5    0.45    0.5    0.45    0.5    
0.45    0.5    0.45    0.5    0.45    
0.5    0.45    0.5    0.45    0.5    
0.45    0.5    0.45    0.5    0.45    
0.5    0.45    0.5    0.45    0.5    
0.45    0.5    0.45    0.5    0.45    
0.5    0.45    0.5    0.45    0.5    
0.45    0.5    0.45    0.5    0.45    
0.5    0.45    0.5    0.45    0.5    
0.45    0.5    0.45    0.5    0.45    
0.5    0.45    0.5    0.45    0.5    
0.45    0.5    0.45    0.5    0.45    
0.5    0.45    0.5    0.45    0.5    
0.45    0.5    0.45    0.5    0.45    
0.5    0.45    0.5    0.45    0.5    
0.45    0.5    0.45    0.5    0.45    
0.5    0.45    0.5    0.45    0.5    
0.45    0.5    0.45    0.5    0.45    
0.5    0.4    0.4    0.4    0.4    
0.4    0.4    0.4    0.4    0.4    
0.4    0.4    0.4    0.4    0.4    
0.4    0.4    0.4    0.4    0.4    
0.4    0.4    0.4    0.4    0.4    
0.4    0.4    0.4    0.4    0.4    
0.4    0.4    0.4    0.4    0.4    
0.4    0.4    0.4    0.4    0.4    
0.4    0.4    0.4    0.4    0.4    
0.4    0.4    0.4    0.4    0.4    
0.4    0.4    0.4    0.4    0.4    
0.4    0.4    0.4    0.4    0.4    
0.4    0.4    0.4    0.4    0.4    
0.4    0.4    0.4    0.4    0.35    
0.35    0.35    0.35    0.35    0.35    
0.35    0.35    0.35    0.35    0.35    
0.35    0.35    0.35    0.35    0.35    
0.35    0.35    0.35    0.35    0.35    
0.35    0.35    0.35    0.35    0.35    
0.35    0.35    0.35    0.35    0.35    
0.35    0.35    0.35    0.35    0.35    
0.35    0.35    0.35    0.35    0.35    
0.35    0.35    0.35    0.35    0.35    
0.35    0.35    0.35    0.35    0.35    
0.35    0.35    0.35    0.35    0.35    
0.35    0.35    0.35    0.35    0.35    
0.35    0.35    0.35    0.35    0.35    
0.35    0.35    0.3    0.3    0.3    
0.3    0.3    0.3    0.3    0.3    
0.3    0.3    0.3    0.3    0.3    
0.3    0.3    0.3    0.3    0.3    
0.3    0.3    0.3    0.3    0.3    
0.3    0.3    0.3    0.3    0.3    
0.3    0.3    0.3    0.3    0.3    
0.3    0.3    0.3    0.3    0.3    
0.3    0.3    0.3    0.3    0.3    
0.3    0.3    0.3    0.3    0.3    
0.3    0.3    0.3    0.3    0.3    
0.3    0.3    0.3    0.3    0.3    
0.3    0.3    0.3    0.3    0.3    
0.3    0.3    0.3    0.3    0.3    
0.25    0.25    0.25    0.25    0.25    
0.25    0.25    0.25    0.25    0.25    
0.25    0.25    0.25    0.25    0.25    
0.25    0.25    0.25    0.25    0.25    
0.25    0.25    0.25    0.25    0.25    
0.25    0.25    0.25    0.25    0.25    
0.25    0.25    0.25    0.25    0.25    
0.25    0.25    0.25    0.25    0.25    
0.25    0.25    0.25    0.25    0.25    
0.25    0.25    0.25    0.25    0.25    
0.25    0.25    0.25    0.25    0.25    
0.25    0.25    0.25    0.25    0.25    
0.25    0.25    0.25    0.25    0.25    
0.25    0.25    0.25    0.2    0.2    
0.2    0.2    0.2    0.2    0.2    
0.2    0.2    0.2    0.2    0.2    
0.2    0.2    0.2    0.2    0.2    
0.2    0.2    0.2    0.2    0.2    
0.2    0.2    0.2    0.2    0.2    
0.2    0.2    0.2    0.2    0.2    
0.2    0.2    0.2    0.2    0.2    
0.2    0.2    0.2    0.2    0.2    
0.2    0.2    0.2    0.2    0.2    
0.2    0.2    0.2    0.2    0.2    
0.2    0.2    0.2    0.2    0.2    
0.2    0.2    0.2    0.2    0.2    
0.2    0.2    0.2    0.2    0.2    
0.2    0.15    0.15    0.15    0.15    
0.15    0.15    0.15    0.15    0.15    
0.15    0.15    0.15    0.15    0.15    
0.15    0.15    0.15    0.15    0.15    
0.15    0.15    0.15    0.15    0.15    
0.15    0.15    0.15    0.15    0.15    
0.15    0.15    0.15    0.15    0.15    
0.15    0.15    0.15    0.15    0.15    
0.15    0.15    0.15    0.15    0.15    
0.15    0.15    0.15    0.15    0.15    
0.15    0.15    0.15    0.15    0.15    
0.15    0.15    0.15    0.15    0.15    
0.15    0.15    0.15    0.15    0.1    
0.1    0.1    0.1    0.1    0.1    
0.1    0.1    0.1    0.1    0.1    
0.1    0.1    0.1    0.1    0.1    
0.1    0.1    0.1    0.1    0.1    
0.1    0.1    0.1    0.1    0.1    
0.1    0.1    0.1    0.1    0.1    
0.1    0.1    0.1    0.1    0.1    
0.1    0.1    0.1    0.1    0.1    
0.1    0.1    0.1    0.1    0.1    
0.1    0.1    0.1    0.1    0.1    
0.1    0.1    0.1    0.1    0.1    
0.1    0.1    0.1    0.1    0.1    
0.1    0.1    0.05    0.05    0.05    
0.05    0.05    0.05    0.05    0.05    
0.05    0.05    0.05    0.05    0.05    
0.05    0.05    0.05    0.05    0.05    
0.05    0.05    0.05    0.05    0.05    
0.05    0.05    0.05    0.05    0.05    
0.05    0.05    0.05    0.05    0.05    
0.05    0.05    0.05    0.05    0.05    
0.05    0.05    0.05    0.05    0.05    
0.05    0.05    0.05    0.05    0.05    
0.05    0.05    0.05    0.05    0.05    
0.05    0.05    0.05    0.05    0.05    
0.05    0.05    0.05    0.05    0.05    
-2.7755575616e-17    0.0    -2.7755575616e-17    0.0    0.0    
0.0    0.0    0.0    0.0    0.0    
0.0    -2.7755575616e-17    -2.7755575616e-17    0.0    0.0    
0.0    -2.7755575616e-17    -2.7755575616e-17    -1.3877787808e-17    0.0    
0.0    -2.7755575616e-17    0.0    0.0    0.0    
0.0    0.0    0.0    0.0    0.0    
0.0    -2.7755575616e-17    0.0    0.0    0.0    
0.0    0.0    0.0    0.0    0.0    
0.0    -2.7755575616e-17    0.0    0.0    0.0    
0.0    0.0    0.0    0.0    0.0    
0.0    -2.7755575616e-17    0.0    0.0    0.0    
0.0    0.0    0.0    0.0    0.0    
0.0    0.0    2.7755575616e-17    
0.15    0.1    0.1    0.15    0.2    
0.2    0.25    0.25    0.3    0.3    
0.35    0.35    0.4    0.4    0.45    
0.45    0.5    0.5    0.1    0.1    
0.05    0.05    0.15    0.15    0.2    
0.2    0.25    0.25    0.3    0.3    
0.35    0.35    0.4    0.4    0.45    
0.45    0.5    0.5    0.05    0.05    
0.1    0.1    0.15    0.15    0.2    
0.2    0.25    0.25    0.3    0.3    
0.35    0.35    0.4    0.4    0.45    
0.45    0.5    0.5    0.05    0.05    
0.1    0.1    0.15    0.15    0.2    
0.2    0.25    0.25    0.3    0.3    
0.35    0.35    0.4    0.4    0.45    
0.45    0.5    0.5    0.05    0.05    
0.1    0.1    0.15    0.15    0.2    
0.2    0.25    0.25    0.3    0.3    
0.35    0.35    0.4    0.4    0.45    
0.45    0.5    0.5    0.05    0.05    
0.1    0.1    0.15    0.15    0.2    
0.2    0.25    0.25    0.3    0.3    
0.35    0.35    0.4    0.4    0.45    
0.45    0.5    0.5    0.1    0.1    
0.15    0.15    0.2    0.2    0.25    
0.25    0.3    0.3    0.35    0.35    
0.4    0.4    0.45    0.45    0.5    
0.5    0.15    0.1    0.2    0.25    
0.3    0.35    0.4    0.45    0.5    
0.1    0.05    0.15    0.2    0.25    
0.3    0.35    0.4    0.45    0.5    
0.05    0.1    0.15    0.2    0.25    
0.3    0.35    0.4    0.45    0.5    
0.05    0.1    0.15    0.2    0.25    
0.3    0.35    0.4    0.45    0.5    
0.05    0.1    0.15    0.2    0.25    
0.3    0.35    0.4    0.45    0.5    
0.05    0.1    0.15    0.2    0.25    
0.3    0.35    0.4    0.45    0.5    
0.1    0.15    0.2    0.25    0.3    
0.35    0.4    0.45    0.5    0.15    
0.1    0.2    0.25    0.3    0.35    
0.4    0.45    0.5    0.1    0.05    
0.15    0.2    0.25    0.3    0.35    
0.4    0.45    0.5    0.05    0.1    
0.15    0.2    0.25    0.3    0.35    
0.4    0.45    0.5    0.05    0.1    
0.15    0.2    0.25    0.3    0.35    
0.4    0.45    0.5    0.05    0.1    
0.15    0.2    0.25    0.3    0.35    
0.4    0.45    0.5    0.05    0.1    
0.15    0.2    0.25    0.3    0.35    
0.4    0.45    0.5    0.1    0.15    
0.2    0.25    0.3    0.35    0.4    
0.45    0.5    0.15    0.1    0.2    
0.25    0.3    0.35    0.4    0.45    
0.5    0.1    0.05    0.15    0.2    
0.25    0.3    0.35    0.4    0.45    
0.5    0.05    0.1    0.15    0.2    
0.25    0.3    0.35    0.4    0.45    
0.5    0.05    0.1    0.15    0.2    
0.25    0.3    0.35    0.4    0.45    
0.5    0.05    0.1    0.15    0.2    
0.25    0.3    0.35    0.4    0.45    
0.5    0.05    0.1    0.15    0.2    
0.25    0.3    0.35    0.4    0.45    
0.5    0.1    0.15    0.2    0.25    
0.3    0.35    0.4    0.45    0.5    
0.15    0.1    0.2    0.25    0.3    
0.35    0.4    0.45    0.5    0.1    
0.05    0.15    0.2    0.25    0.3    
0.35    0.4    0.45    0.5    0.05    
0.1    0.15    0.2    0.25    0.3    
0.35    0.4    0.45    0.5    0.05    
0.1    0.15    0.2    0.25    0.3    
0.35    0.4    0.45    0.5    0.05    
0.1    0.15    0.2    0.25    0.3    
0.35    0.4    0.45    0.5    0.05    
0.1    0.15    0.2    0.25    0.3    
0.35    0.4    0.45    0.5    0.1    
0.15    0.2    0.25    0.3    0.35    
0.4    0.45    0.5    0.15    0.1    
0.2    0.25    0.3    0.35    0.4    
0.45    0.5    0.1    0.05    0.15    
0.2    0.25    0.3    0.35    0.4    
0.45    0.5    0.05    0.1    0.15    
0.2    0.25    0.3    0.35    0.4    
0.45    0.5    0.05    0.1    0.15    
0.2    0.25    0.3    0.35    0.4    
0.45    0.5    0.05    0.1    0.15    
0.2    0.25    0.3    0.35    0.4    
0.45    0.5    0.05    0.1    0.15    
0.2    0.25    0.3    0.35    0.4    
0.45    0.5    0.1    0.15    0.2    
0.25    0.3    0.35    0.4    0.45    
0.5    0.15    0.1    0.2    0.25    
0.3    0.35    0.4    0.45    0.5    
0.1    0.05    0.15    0.2    0.25    
0.3    0.35    0.4    0.45    0.5    
0.05    0.1    0.15    0.2    0.25    
0.3    0.35    0.4    0.45    0.5    
0.05    0.1    0.15    0.2    0.25    
0.3    0.35    0.4    0.45    0.5    
0.05    0.1    0.15    0.2    0.25    
0.3    0.35    0.4    0.45    0.5    
0.05    0.1    0.15    0.2    0.25    
0.3    0.35    0.4    0.45    0.5    
0.1    0.15    0.2    0.25    0.15    
0.1    0.2    0.25    0.3    0.35    
0.4    0.45    0.5    0.1    0.05    
0.15    0.2    0.25    0.3    0.35    
0.4    0.45    0.5    0.05    0.1    
0.15    0.2    0.25    0.3    0.35    
0.4    0.45    0.5    0.05    0.1    
0.15    0.2    0.25    0.3    0.35    
0.4    0.45    0.5    0.05    0.1    
0.15    0.2    0.25    0.3    0.35    
0.4    0.45    0.5    0.05    0.1    
0.15    0.2    0.25    0.3    0.35    
0.4    0.45    0.5    0.1    0.15    
0.2    0.25    0.15    0.1    0.2    
0.25    0.3    0.35    0.4    0.45    
0.5    0.1    0.05    0.15    0.2    
0.25    0.3    0.35    0.4    0.45    
0.5    0.05    0.1    0.15    0.2    
0.25    0.3    0.35    0.4    0.45    
0.5    0.05    0.1    0.15    0.2    
0.25    0.3    0.35    0.4    0.45    
0.5    0.05    0.1    0.15    0.2    
0.25    0.3    0.35    0.4    0.45    
0.5    0.05    0.1    0.15    0.2    
0.25    0.3    0.35    0.4    0.45    
0.5    0.1    0.15    0.2    0.25    
0.15    0.1    0.2    0.25    0.3    
0.35    0.4    0.45    0.5    0.1    
0.05    0.15    0.2    0.25    0.3    
0.35    0.4    0.45    0.5    0.05    
0.1    0.15    0.2    0.25    0.3    
0.35    0.4    0.45    0.5    0.05    
0.1    0.15    0.2    0.25    0.3    
0.35    0.4    0.45    0.5    0.05    
0.1    0.15    0.2    0.25    0.3    
0.35    0.4    0.45    0.5    0.05    
0.1    0.15    0.2    0.25    0.3    
0.35    0.4    0.45    0.5    0.1    
0.15    0.2    0.25    
0.1    0.1    0.1    0.1    0.1    
0.1    0.1    0.1    0.1    0.1    
0.1    0.1    0.1    0.1    0.1    
0.1    0.1    0.1    0.05    0.05    
0.05    0.05    0.05    0.05    0.05    
0.05    0.05    0.05    0.05    0.05    
0.05    0.05    0.05    0.05    0.05    
0.05    0.05    0.05    0.0    0.0    
0.0    0.0    0.0    0.0    0.0    
0.0    0.0    0.0    0.0    0.0    
0.0    0.0    0.0    0.0    0.0    
0.0    0.0    0.0    -0.05    -0.05    
-0.05    -0.05    -0.05    -0.05    -0.05    
-0.05    -0.05    -0.05    -0.05    -0.05    
-0.05    -0.05    -0.05    -0.05    -0.05    
-0.05    -0.05    -0.05    -0.1    -0.1    
-0.1    -0.1    -0.1    -0.1    -0.1    
-0.1    -0.1    -0.1    -0.1    -0.1    
-0.1    -0.1    -0.1    -0.1    -0.1    
-0.1    -0.1    -0.1    -0.15    -0.15    
-0.15    -0.15    -0.15    -0.15    -0.15    
-0.15    -0.15    -0.15    -0.15    -0.15    
-0.15    -0.15    -0.15    -0.15    -0.15    
-0.15    -0.15    -0.15    -0.2    -0.2    
-0.2    -0.2    -0.2    -0.2    -0.2    
-0.2    -0.2    -0.2    -0.2    -0.2    
-0.2    -0.2    -0.2    -0.2    -0.2    
-0.2    0.1    0.1    0.1    0.1    
0.1    0.1    0.1    0.1    0.1    
0.05    0.05    0.05    0.05    0.05    
0.05    0.05    0.05    0.05    0.05    
0.0    0.0    0.0    0.0    0.0    
0.0    0.0    0.0    0.0    0.0    
-0.05    -0.05    -0.05    -0.05    -0.05    
-0.05    -0.05    -0.05    -0.05    -0.05    
-0.1    -0.1    -0.1    -0.1    -0.1    
-0.1    -0.1    -0.1    -0.1    -0.1    
-0.15    -0.15    -0.15    -0.15    -0.15    
-0.15    -0.15    -0.15    -0.15    -0.15    
-0.2    -0.2    -0.2    -0.2    -0.2    
-0.2    -0.2    -0.2    -0.2    0.1    
0.1    0.1    0.1    0.1    0.1    
0.1    0.1    0.1    0.05    0.05    
0.05    0.05    0.05    0.05    0.05    
0.05    0.05    0.05    0.0    0.0    
0.0    0.0    0.0    0.0    0.0    
2.4651903288e-32    0.0    0.0    -0.05    -0.05    
-0.05    -0.05    -0.05    -0.05    -0.05    
-0.05    -0.05    -0.05    -0.1    -0.1    
-0.1    -0.1    -0.1    -0.1    -0.1    
-0.1    -0.1    -0.1    -0.15    -0.15    
-0.15    -0.15    -0.15    -0.15    -0.15    
-0.15    -0.15    -0.15    -0.2    -0.2    
-0.2    -0.2    -0.2    -0.2    -0.2    
-0.2    -0.2    0.1    0.1    0.1    
0.1    0.1    0.1    0.1    0.1    
0.1    0.05    0.05    0.05    0.05    
0.05    0.05    0.05    0.05    0.05    
0.05    0.0    0.0    0.0    0.0    
0.0    0.0    0.0    0.0    0.0    
0.0    -0.05    -0.05    -0.05    -0.05    
-0.05    -0.05    -0.05    -0.05    -0.05    
-0.05    -0.1    -0.1    -0.1    -0.1    
-0.1    -0.1    -0.1    -0.1    -0.1    
-0.1    -0.15    -0.15    -0.15    -0.15    
-0.15    -0.15    -0.15    -0.15    -0.15    
-0.15    -0.2    -0.2    -0.2    -0.2    
-0.2    -0.2    -0.2    -0.2    -0.2    
0.1    0.1    0.1    0.1    0.1    
0.1    0.1    0.1    0.1    0.05    
0.05    0.05    0.05    0.05    0.05    
0.05    0.05    0.05    0.05    0.0    
0.0    0.0    0.0    0.0    0.0    
0.0    0.0    0.0    0.0    -0.05    
-0.05    -0.05    -0.05    -0.05    -0.05    
-0.05    -0.05    -0.05    -0.05    -0.1    
-0.1    -0.1    -0.1    -0.1    -0.1    
-0.1    -0.1    -0.1    -0.1    -0.15    
-0.15    -0.15    -0.15    -0.15    -0.15    
-0.15    -0.15    -0.15    -0.15    -0.2    
-0.2    -0.2    -0.2    -0.2    -0.2    
-0.2    -0.2    -0.2    0.1    0.1    
0.1    0.1    0.1    0.1    0.1    
0.1    0.1    0.05    0.05    0.05    
0.05    0.05    0.05    0.05    0.05    
0.05    0.05    0.0    0.0    0.0    
0.0    0.0    0.0    0.0    0.0    
0.0    0.0    -0.05    -0.05    -0.05    
-0.05    -0.05    -0.05    -0.05    -0.05    
-0.05    -0.05    -0.1    -0.1    -0.1    
-0.1    -0.1    -0.1    -0.1    -0.1    
-0.1    -0.1    -0.15    -0.15    -0.15    
-0.15    -0.15    -0.15    -0.15    -0.15    
-0.15    -0.15    -0.2    -0.2    -0.2    
-0.2    -0.2    -0.2    -0.2    -0.2    
-0.2    0.1    0.1    0.1    0.1    
0.1    0.1    0.1    0.1    0.1    
0.05    0.05    0.05    0.05    0.05    
0.05    0.05    0.05    0.05    0.05    
0.0    0.0    0.0    0.0    0.0    
0.0    0.0    0.0    0.0    0.0    
-0.05    -0.05    -0.05    -0.05    -0.05    
-0.05    -0.05    -0.05    -0.05    -0.05    
-0.1    -0.1    -0.1    -0.1    -0.1    
-0.1    -0.1    -0.1    -0.1    -0.1    
-0.15    -0.15    -0.15    -0.15    -0.15    
-0.15    -0.15    -0.15    -0.15    -0.15    
-0.2    -0.2    -0.2    -0.2    0.1    
0.1    0.1    0.1    0.1    0.1    
0.1    0.1    0.1    0.05    0.05    
0.05    0.05    0.05    0.05    0.05    
0.05    0.05    0.05    0.0    0.0    
0.0    0.0    0.0    0.0    0.0    
0.0    0.0    0.0    -0.05    -0.05    
-0.05    -0.05    -0.05    -0.05    -0.05    
-0.05    -0.05    -0.05    -0.1    -0.1    
-0.1    -0.1    -0.1    -0.1    -0.1    
-0.1    -0.1    -0.1    -0.15    -0.15    
-0.15    -0.15    -0.15    -0.15    -0.15    
-0.15    -0.15    -0.15    -0.2    -0.2    
-0.2    -0.2    0.1    0.1    0.1    
0.1    0.1    0.1    0.1    0.1    
0.1    0.05    0.05    0.05    0.05    
0.05    0.05    0.05    0.05    0.05    
0.05    0.0    0.0    0.0    0.0    
0.0    0.0    0.0    0.0    0.0    
0.0    -0.05    -0.05    -0.05    -0.05    
-0.05    -0.05    -0.05    -0.05    -0.05    
-0.05    -0.1    -0.1    -0.1    -0.1    
-0.1    -0.1    -0.1    -0.1    -0.1    
-0.1    -0.15    -0.15    -0.15    -0.15    
-0.15    -0.15    -0.15    -0.15    -0.15    
-0.15    -0.2    -0.2    -0.2    -0.2    
0.1    0.1    0.1    0.1    0.1    
0.1    0.1    0.1    0.1    0.05    
0.05    0.05    0.05    0.05    0.05    
0.05    0.05    0.05    0.05    0.0    
0.0    0.0    0.0    0.0    0.0    
0.0    0.0    0.0    0.0    -0.05    
-0.05    -0.05    -0.05    -0.05    -0.05    
-0.05    -0.05    -0.05    -0.05    -0.1    
-0.1    -0.1    -0.1    -0.1    -0.1    
-0.1    -0.1    -0.1    -0.1    -0.15    
-0.15    -0.15    -0.15    -0.15    -0.15    
-0.15    -0.15    -0.15    -0.15    -0.2    
-0.2    -0.2    -0.2    
389.679368085    386.643966939    382.463163737    376.411609387    366.89296227    
349.687516916    311.293915067    200.679135709    391.804869427    389.508743709    
386.452614415    382.256740788    376.200619964    366.693450513    349.520294732    
311.181340395    200.63924744    391.804869428    389.508743712    386.452614419    
382.256740792    376.200619967    366.693450515    349.520294733    311.181340396    
200.63924744    391.952702846    389.679368089    386.643966948    382.463163746    
376.411609394    366.892962275    349.687516919    311.29391507    200.679135709    
392.253487308    390.029338585    387.04034961    382.895834537    376.859905769    
367.323248519    350.053678166    311.543747287    200.768432786    390.575488719    
387.669139683    383.595925257    377.602354371    368.054745601    350.693457702    
311.991480109    200.931344772    369.62082453    360.872272741    349.033994519    
332.464613977    308.134910563    270.051768182    205.965665169    92.7314903761    
375.802197336    369.115610328    360.306235051    348.424046611    331.841919093    
307.546826108    269.559460566    205.634585127    92.6142559744    375.802197328    
369.115610341    360.306235066    348.424046624    331.841919103    307.546826116    
269.559460571    205.63458513    92.6142559755    376.240298925    369.620824536    
360.872272773    349.033994545    332.464613998    308.134910577    270.051768191    
205.965665175    92.7314903787    377.131425547    370.656676386    362.044167509    
350.311497378    333.786293556    309.401447823    271.127776732    206.698724877    
92.9932345213    372.272136393    363.901442442    352.375863336    335.971162702    
311.54910464    273.001365994    208.006557335    93.468114528    351.160720726    
337.584447992    319.668372726    295.578956797    262.451845044    215.835279161    
149.383507397    56.868141266    360.887880804    350.340051098    336.666631183    
318.681343625    294.573488823    261.504389821    215.043828689    148.852203538    
56.6802129044    360.887880799    350.340051121    336.666631207    318.681343648    
294.573488841    261.504389834    215.043828698    148.852203544    56.6802129065    
361.600653874    351.16072075    337.584448048    319.668372777    295.578956835    
262.451845071    215.835279179    149.383507409    56.8681412708    363.049753148    
352.842165789    339.482766489    321.732830804    297.709133683    264.487352924    
217.55967535    150.555368213    57.2858790796    355.461359844    342.48628126    
325.061067491    301.219188818    267.923932468    220.545100852    152.630997221    
58.037336327    334.976181134    317.655924212    295.398662716    266.606286591    
229.170181041    180.521050328    118.224387048    41.9958991116    347.580338165    
333.869412531    316.42107815    294.074178785    265.260834789    227.905960446    
179.467810357    117.51888357    41.7466766448    347.580338161    333.869412561    
316.421078187    294.074178817    265.260834815    227.905960464    179.467810369    
117.518883578    41.7466766475    348.543610584    334.976181173    317.655924303    
295.398662791    266.606286649    229.170181082    180.521050353    118.224387064    
41.9958991179    350.500698189    337.241718177    320.206705536    298.164147007    
269.450179168    231.878083148    182.807174199    119.773425336    42.5470732191    
340.765367971    324.233946679    302.609485065    274.117729319    236.425987315    
186.738634163    122.494630156    43.5292344939    321.385700661    301.348469945    
276.223067084    244.778905138    205.657860751    157.621470184    100.153556566    
34.5850156133    336.184476411    320.029414197    299.839244014    274.608974626    
243.144259305    204.126586201    156.349328738    99.3033402547    34.2850642787    
336.184476399    320.029414242    299.839244058    274.608974667    243.144259335    
204.12658622    156.34932875    99.3033402622    34.2850642815    337.367708579    
321.385700706    301.348470063    276.223067177    244.778905204    205.657860788    
157.621470206    100.153556581    34.5850156192    339.769935019    324.159190482    
304.461730539    279.587018679    248.225695191    208.927624202    160.372176833    
102.011919149    35.2450745046    328.465689421    309.365770515    284.97760645    
253.859540591    214.390060091    165.071214153    105.250597838    36.4107581197    
310.433239736    288.525153483    261.616371584    228.816262032    189.322397787    
142.674847921    89.1752071651    30.4155148454    326.821253379    308.868237528    
286.788283123    259.764123965    226.945995779    187.575521755    141.227436684    
88.2098681234    30.0753531603    326.821253361    308.868237567    286.788283171    
259.764124009    226.945995808    187.575521773    141.227436697    88.2098681313    
30.0753531632    328.18982378    310.433239755    288.525153597    261.616371691    
228.816262093    189.322397818    142.674847942    89.1752071799    30.415514851    
330.96632101    313.630369139    292.103227985    265.469865735    232.75090333    
193.041869184    145.793659085    91.2766838037    31.1607554247    318.586625933    
297.727064294    271.626869615    239.157677607    199.225614254    151.090014193    
94.9135975403    32.4667379283    302.000153846    278.861328856    250.899757462    
217.482998695    178.168025128    132.908916643    82.3207717585    27.912272563    
319.484964743    300.268997408    276.944656666    248.860994751    215.429811865    
176.255192342    131.327616892    81.2680033546    27.5416717141    319.484964719    
300.268997453    276.944656715    248.860994796    215.429811896    176.255192362    
131.327616906    81.2680033635    27.541671717    321.002127106    302.000153855    
278.861328972    250.899757571    217.482998748    178.168025158    132.908916665    
82.3207717702    27.912272568    324.078085839    305.533609822    282.805184632    
255.134803142    221.794050209    182.231016438    136.306362555    84.6049644332    
28.7212768828    311.003404326    288.99205287    261.884415696    295.901620155    
271.99306738    243.44204801    209.790085561    170.807628896    126.65587563    
78.0552663933    26.3866727472    314.102406183    294.046974537    269.943679229    
241.266623825    207.603877809    168.774986084    124.978535429    76.9400882883    
25.9944012043    314.102406155    294.046974581    269.943679279    241.266623868    
207.603877835    168.774986102    124.978535445    76.9400882954    25.9944012067    
315.73069442    295.901620149    271.993067486    243.442048105    209.790085604    
170.807628923    126.655875646    78.0552664025    26.3866727508    319.030223547    
299.684461296    276.206084995    247.955545032    214.373483276    175.117083647    
130.251728356    80.4688104369    27.2406728035    305.533609561    282.805184337    
255.134802859    291.954369445    267.603643347    238.747209038    205.03047676    
166.339717362    122.933178064    75.5593795133    25.5040962711    310.580960138    
290.018170019    265.46707378    236.482519365    202.757881755    164.229695948    
121.194110263    74.4042350583    25.0979744764    310.580960099    290.018170058    
265.467073818    236.482519397    202.757881773    164.229695967    121.194110272    
74.4042350641    25.0979744785    312.282993319    291.95436941    267.603643427    
238.747209108    205.030476786    166.339717376    122.933178072    75.5593795166    
25.504096273    315.73069416    295.901619874    271.99306722    243.442047844    
209.790085352    170.807628716    126.655875489    78.0552663056    26.3866727167    
302.000153326    278.861328425    250.899757038    290.01816989    265.467073548    
236.48251914    202.757881575    164.229695803    121.194110152    74.4042349905    
25.0979744512    308.842194111    288.041472571    263.287356982    234.173808499    
200.442838946    162.081784312    119.424906822    73.2296227681    24.6851143295    
308.842194046    288.041472582    263.287356994    234.17380851    200.442838955    
162.081784319    119.424906828    73.2296227709    24.6851143304    310.580959848    
290.018169794    265.467073551    236.482519149    202.757881558    164.22969579    
121.194110139    74.4042349812    25.097974449    314.102405649    294.046974062    
269.943678768    241.266623383    207.603877388    168.77498573    124.978535162    
76.9400881212    25.9944011454    300.268996687    276.944655948    248.860994058    

0.125    0.175    0.225    0.275    0.325    
0.375    0.425    0.475    0.075    0.125    
0.175    0.225    0.275    0.325    0.375    
0.425    0.475    0.075    0.125    0.175    
0.225    0.275    0.325    0.375    0.425    
0.475    0.075    0.125    0.175    0.225    
0.275    0.325    0.375    0.425    0.475    
0.075    0.125    0.175    0.225    0.275    
0.325    0.375    0.425    0.475    0.125    
0.175    0.225    0.275    0.325    0.375    
0.425    0.475    0.125    0.175    0.225    
0.275    0.325    0.375    0.425    0.475    
0.075    0.125    0.175    0.225    0.275    
0.325    0.375    0.425    0.475    0.075    
0.125    0.175    0.225    0.275    0.325    
0.375    0.425    0.475    0.075    0.125    
0.175    0.225    0.275    0.325    0.375    
0.425    0.475    0.075    0.125    0.175    
0.225    0.275    0.325    0.375    0.425    
0.475    0.125    0.175    0.225    0.275    
0.325    0.375    0.425    0.475    0.125    
0.175    0.225    0.275    0.325    0.375    
0.425    0.475    0.075    0.125    0.175    
0.225    0.275    0.325    0.375    0.425    
0.475    0.075    0.125    0.175    0.225    
0.275    0.325    0.375    0.425    0.475    
0.075    0.125    0.175    0.225    0.275    
0.325    0.375    0.425    0.475    0.075    
0.125    0.175    0.225    0.275    0.325    
0.375    0.425    0.475    0.125    0.175    
0.225    0.275    0.325    0.375    0.425    
0.475    0.125    0.175    0.225    0.275    
0.325    0.375    0.425    0.475    0.075    
0.125    0.175    0.225    0.275    0.325    
0.375    0.425    0.475    0.075    0.125    
0.175    0.225    0.275    0.325    0.375    
0.425    0.475    0.075    0.125    0.175    
0.225    0.275    0.325    0.375    0.425    
0.475    0.075    0.125    0.175    0.225    
0.275    0.325    0.375    0.425    0.475    
0.125    0.175    0.225    0.275    0.325    
0.375    0.425    0.475    0.125    0.175    
0.225    0.275    0.325    0.375    0.425    
0.475    0.075    0.125    0.175    0.225    
0.275    0.325    0.375    0.425    0.475    
0.075    0.125    0.175    0.225    0.275    
0.325    0.375    0.425    0.475    0.075    
0.125    0.175    0.225    0.275    0.325    
0.375    0.425    0.475    0.075    0.125    
0.175    0.225    0.275    0.325    0.375    
0.425    0.475    0.125    0.175    0.225    
0.275    0.325    0.375    0.425    0.475    
0.125    0.175    0.225    0.275    0.325    
0.375    0.425    0.475    0.075    0.125    
0.175    0.225    0.275    0.325    0.375    
0.425    0.475    0.075    0.125    0.175    
0.225    0.275    0.325    0.375    0.425    
0.475    0.075    0.125    0.175    0.225    
0.275    0.325    0.375    0.425    0.475    
0.075    0.125    0.175    0.225    0.275    
0.325    0.375    0.425    0.475    0.125    
0.175    0.225    0.275    0.325    0.375    
0.425    0.475    0.125    0.175    0.225    
0.275    0.325    0.375    0.425    0.475    
0.075    0.125    0.175    0.225    0.275    
0.325    0.375    0.425    0.475    0.075    
0.125    0.175    0.225    0.275    0.325    
0.375    0.425    0.475    0.075    0.125    
0.175    0.225    0.275    0.325    0.375    
0.425    0.475    0.075    0.125    0.175    
0.225    0.275    0.325    0.375    0.425    
0.475    0.125    0.175    0.225    0.125    
0.175    0.225    0.275    0.325    0.375    
0.425    0.475    0.075    0.125    0.175    
0.225    0.275    0.325    0.375    0.425    
0.475    0.075    0.125    0.175    0.225    
0.275    0.325    0.375    0.425    0.475    
0.075    0.125    0.175    0.225    0.275    
0.325    0.375    0.425    0.475    0.075    
0.125    0.175    0.225    0.275    0.325    
0.375    0.425    0.475    0.125    0.175    
0.225    0.125    0.175    0.225    0.275    
0.325    0.375    0.425    0.475    0.075    
0.125    0.175    0.225    0.275    0.325    