Title = " tecplot file for 2D Cavity problem " 
variables = "x", "y", "z", "velX", "cellCentroidY" 
Zone T = "nmesh0" N = 723 E = 500 DATAPACKING = BLOCK, VARLOCATION = ([4-5]=CELLCENTERED), ZONETYPE=FEBRICK
0.45    0.45    0.5    0.5    0.45    
0.5    0.45    0.45    0.45    0.5    
0.5    0.45    0.45    0.5    0.5    
0.45    0.45    0.5    0.5    0.45    
0.45    0.5    0.5    0.45    0.45    
0.5    0.5    0.45    0.45    0.5    
0.5    0.45    0.45    0.5    0.5    
0.45    0.5    0.45    0.5    0.45    
0.5    0.45    0.5    0.45    0.5    
0.45    0.5    0.45    0.5    0.45    
0.5    0.45    0.5    0.45    0.5    
0.45    0.5    0.45    0.5    0.45    
0.5    0.45    0.5    0.45    0.5    
0.45    0.5    0.45    0.5    0.45    
0.5    0.45    0.5    0.45    0.5    
0.45    0.5    0.45    0.5    0.45    
0.5    0.45    0.5    0.45    0.5    
0.45    0.5    0.45    0.5    0.45    
0.5    0.45    0.5    0.45    0.5    
0.45    0.5    0.45    0.5    0.45    
0.5    0.45    0.5    0.45    0.5    
0.45    0.5    0.45    0.5    0.45    
0.5    0.45    0.5    0.45    0.5    
0.45    0.5    0.45    0.5    0.45    
0.5    0.45    0.5    0.45    0.5    
0.45    0.5    0.45    0.5    0.45    
0.5    0.45    0.5    0.45    0.5    
0.45    0.5    0.4    0.4    0.4    
0.4    0.4    0.4    0.4    0.4    
0.4    0.4    0.4    0.4    0.4    
0.4    0.4    0.4    0.4    0.4    
0.4    0.4    0.4    0.4    0.4    
0.4    0.4    0.4    0.4    0.4    
0.4    0.4    0.4    0.4    0.4    
0.4    0.4    0.4    0.4    0.4    
0.4    0.4    0.4    0.4    0.4    
0.4    0.4    0.4    0.4    0.4    
0.4    0.4    0.4    0.4    0.4    
0.4    0.4    0.4    0.4    0.4    
0.4    0.4    0.4    0.4    0.4    
0.4    0.4    0.4    0.4    0.4    
0.4    0.35    0.35    0.35    0.35    
0.35    0.35    0.35    0.35    0.35    
0.35    0.35    0.35    0.35    0.35    
0.35    0.35    0.35    0.35    0.35    
0.35    0.35    0.35    0.35    0.35    
0.35    0.35    0.35    0.35    0.35    
0.35    0.35    0.35    0.35    0.35    
0.35    0.35    0.35    0.35    0.35    
0.35    0.35    0.35    0.35    0.35    
0.35    0.35    0.35    0.35    0.35    
0.35    0.35    0.35    0.35    0.35    
0.35    0.35    0.35    0.35    0.35    
0.35    0.35    0.35    0.35    0.35    
0.35    0.35    0.35    0.35    0.35    
0.3    0.3    0.3    0.3    0.3    
0.3    0.3    0.3    0.3    0.3    
0.3    0.3    0.3    0.3    0.3    
0.3    0.3    0.3    0.3    0.3    
0.3    0.3    0.3    0.3    0.3    
0.3    0.3    0.3    0.3    0.3    
0.3    0.3    0.3    0.3    0.3    
0.3    0.3    0.3    0.3    0.3    
0.3    0.3    0.3    0.3    0.3    
0.3    0.3    0.3    0.3    0.3    
0.3    0.3    0.3    0.3    0.3    
0.3    0.3    0.3    0.3    0.3    
0.3    0.3    0.3    0.3    0.3    
0.3    0.3    0.3    0.3    0.25    
0.25    0.25    0.25    0.25    0.25    
0.25    0.25    0.25    0.25    0.25    
0.25    0.25    0.25    0.25    0.25    
0.25    0.25    0.25    0.25    0.25    
0.25    0.25    0.25    0.25    0.25    
0.25    0.25    0.25    0.25    0.25    
0.25    0.25    0.25    0.25    0.25    
0.25    0.25    0.25    0.25    0.25    
0.25    0.25    0.25    0.25    0.25    
0.25    0.25    0.25    0.25    0.25    
0.25    0.25    0.25    0.25    0.25    
0.25    0.25    0.25    0.25    0.25    
0.25    0.25    0.2    0.2    0.2    
0.2    0.2    0.2    0.2    0.2    
0.2    0.2    0.2    0.2    0.2    
0.2    0.2    0.2    0.2    0.2    
0.2    0.2    0.2    0.2    0.2    
0.2    0.2    0.2    0.2    0.2    
0.2    0.2    0.2    0.2    0.2    
0.2    0.2    0.2    0.2    0.2    
0.2    0.2    0.2    0.2    0.2    
0.2    0.2    0.2    0.2    0.2    
0.2    0.2    0.2    0.2    0.2    
0.2    0.2    0.2    0.2    0.2    
0.2    0.2    0.2    0.2    0.2    
0.15    0.15    0.15    0.15    0.15    
0.15    0.15    0.15    0.15    0.15    
0.15    0.15    0.15    0.15    0.15    
0.15    0.15    0.15    0.15    0.15    
0.15    0.15    0.15    0.15    0.15    
0.15    0.15    0.15    0.15    0.15    
0.15    0.15    0.15    0.15    0.15    
0.15    0.15    0.15    0.15    0.15    
0.15    0.15    0.15    0.15    0.15    
0.15    0.15    0.15    0.15    0.15    
0.15    0.15    0.15    0.15    0.15    
0.15    0.15    0.15    0.15    0.15    
0.15    0.15    0.15    0.1    0.1    
0.1    0.1    0.1    0.1    0.1    
0.1    0.1    0.1    0.1    0.1    
0.1    0.1    0.1    0.1    0.1    
0.1    0.1    0.1    0.1    0.1    
0.1    0.1    0.1    0.1    0.1    
0.1    0.1    0.1    0.1    0.1    
0.1    0.1    0.1    0.1    0.1    
0.1    0.1    0.1    0.1    0.1    
0.1    0.1    0.1    0.1    0.1    
0.1    0.1    0.1    0.1    0.1    
0.1    0.1    0.1    0.1    0.1    
0.1    0.1    0.1    0.1    0.1    
0.1    0.05    0.05    0.05    0.05    
0.05    0.05    0.05    0.05    0.05    
0.05    0.05    0.05    0.05    0.05    
0.05    0.05    0.05    0.05    0.05    
0.05    0.05    0.05    0.05    0.05    
0.05    0.05    0.05    0.05    0.05    
0.05    0.05    0.05    0.05    0.05    
0.05    0.05    0.05    0.05    0.05    
0.05    0.05    0.05    0.05    0.05    
0.05    0.05    0.05    0.05    0.05    
0.05    0.05    0.05    0.05    0.05    
0.05    0.05    0.05    0.05    0.05    
0.05    0.05    0.05    0.05    -1.0408340856e-17    
-2.7755575616e-17    -1.9081958236e-17    0.0    -2.0816681712e-17    -2.7755575616e-17    
0.0    0.0    2.0816681712e-17    0.0    6.9388939039e-18    
0.0    0.0    0.0    -1.3877787808e-17    -2.7755575616e-17    
0.0    0.0    -2.7755575616e-17    -1.0408340856e-17    -2.7755575616e-17    
0.0    0.0    0.0    0.0    -2.7755575616e-17    
0.0    0.0    1.3877787808e-17    0.0    0.0    
2.7755575616e-17    0.0    0.0    0.0    0.0    
2.7755575616e-17    2.7755575616e-17    0.0    2.7755575616e-17    2.7755575616e-17    
2.7755575616e-17    0.0    0.0    0.0    0.0    
6.9388939039e-18    0.0    0.0    2.7755575616e-17    0.0    
0.0    -2.7755575616e-17    0.0    0.0    1.3877787808e-17    
0.0    0.0    2.7755575616e-17    0.0    0.0    
-2.7755575616e-17    0.0    0.5    
-0.45    -0.45    -0.45    -0.45    -0.5    
-0.5    -0.5    -0.4    -0.4    -0.4    
-0.4    -0.35    -0.35    -0.35    -0.35    
-0.3    -0.3    -0.3    -0.3    -0.25    
-0.25    -0.25    -0.25    -0.2    -0.2    
-0.2    -0.2    -0.15    -0.15    -0.15    
-0.15    -0.1    -0.1    -0.1    -0.1    
-0.45    -0.45    -0.5    -0.5    -0.4    
-0.4    -0.35    -0.35    -0.3    -0.3    
-0.25    -0.25    -0.2    -0.2    -0.15    
-0.15    -0.1    -0.1    -0.45    -0.45    
-0.5    -0.5    -0.4    -0.4    -0.35    
-0.35    -0.3    -0.3    -0.25    -0.25    
-0.2    -0.2    -0.15    -0.15    -0.1    
-0.1    -0.45    -0.45    -0.5    -0.5    
-0.4    -0.4    -0.35    -0.35    -0.3    
-0.3    -0.25    -0.25    -0.2    -0.2    
-0.15    -0.15    -0.1    -0.1    -0.45    
-0.45    -0.5    -0.5    -0.4    -0.4    
-0.35    -0.35    -0.3    -0.3    -0.25    
-0.25    -0.2    -0.2    -0.15    -0.15    
-0.1    -0.1    -0.45    -0.45    -0.5    
-0.5    -0.4    -0.4    -0.35    -0.35    
-0.3    -0.3    -0.25    -0.25    -0.2    
-0.2    -0.15    -0.15    -0.1    -0.1    
-0.35    -0.35    -0.3    -0.3    -0.25    
-0.25    -0.2    -0.2    -0.15    -0.15    
-0.1    -0.1    -0.45    -0.45    -0.5    
-0.5    -0.4    -0.4    -0.35    -0.35    
-0.3    -0.3    -0.25    -0.25    -0.2    
-0.2    -0.15    -0.15    -0.1    -0.1    
-0.45    -0.5    -0.4    -0.35    -0.3    
-0.25    -0.2    -0.15    -0.1    -0.45    
-0.5    -0.4    -0.35    -0.3    -0.25    
-0.2    -0.15    -0.1    -0.45    -0.5    
-0.4    -0.35    -0.3    -0.25    -0.2    
-0.15    -0.1    -0.45    -0.5    -0.4    
-0.35    -0.3    -0.25    -0.2    -0.15    
-0.1    -0.45    -0.5    -0.4    -0.35    
-0.3    -0.25    -0.2    -0.15    -0.1    
-0.35    -0.3    -0.25    -0.2    -0.15    
-0.1    -0.45    -0.45    -0.5    -0.5    
-0.4    -0.4    -0.35    -0.35    -0.3    
-0.3    -0.25    -0.25    -0.2    -0.2    
-0.15    -0.15    -0.1    -0.1    -0.45    
-0.5    -0.4    -0.35    -0.3    -0.25    
-0.2    -0.15    -0.1    -0.45    -0.5    
-0.4    -0.35    -0.3    -0.25    -0.2    
-0.15    -0.1    -0.45    -0.5    -0.4    
-0.35    -0.3    -0.25    -0.2    -0.15    
-0.1    -0.45    -0.5    -0.4    -0.35    
-0.3    -0.25    -0.2    -0.15    -0.1    
-0.45    -0.5    -0.4    -0.35    -0.3    
-0.25    -0.2    -0.15    -0.1    -0.35    
-0.3    -0.25    -0.2    -0.15    -0.1    
-0.45    -0.45    -0.5    -0.5    -0.4    
-0.4    -0.35    -0.35    -0.3    -0.3    
-0.25    -0.25    -0.2    -0.2    -0.15    
-0.15    -0.1    -0.1    -0.45    -0.5    
-0.4    -0.35    -0.3    -0.25    -0.2    
-0.15    -0.1    -0.45    -0.5    -0.4    
-0.35    -0.3    -0.25    -0.2    -0.15    
-0.1    -0.45    -0.5    -0.4    -0.35    
-0.3    -0.25    -0.2    -0.15    -0.1    
-0.45    -0.5    -0.4    -0.35    -0.3    
-0.25    -0.2    -0.15    -0.1    -0.45    
-0.5    -0.4    -0.35    -0.3    -0.25    
-0.2    -0.15    -0.1    -0.35    -0.3    
-0.25    -0.2    -0.15    -0.1    -0.45    
-0.45    -0.5    -0.5    -0.4    -0.4    
-0.35    -0.35    -0.3    -0.3    -0.25    
-0.25    -0.2    -0.2    -0.15    -0.15    
-0.1    -0.1    -0.45    -0.5    -0.4    
-0.35    -0.3    -0.25    -0.2    -0.15    
-0.1    -0.45    -0.5    -0.4    -0.35    
-0.3    -0.25    -0.2    -0.15    -0.1    
-0.45    -0.5    -0.4    -0.35    -0.3    
-0.25    -0.2    -0.15    -0.1    -0.45    
-0.5    -0.4    -0.35    -0.3    -0.25    
-0.2    -0.15    -0.1    -0.45    -0.5    
-0.4    -0.35    -0.3    -0.25    -0.2    
-0.15    -0.1    -0.45    -0.45    -0.5    
-0.5    -0.4    -0.4    -0.35    -0.35    
-0.3    -0.3    -0.25    -0.25    -0.2    
-0.2    -0.15    -0.15    -0.1    -0.1    
-0.45    -0.5    -0.4    -0.35    -0.3    
-0.25    -0.2    -0.15    -0.1    -0.45    
-0.5    -0.4    -0.35    -0.3    -0.25    
-0.2    -0.15    -0.1    -0.45    -0.5    
-0.4    -0.35    -0.3    -0.25    -0.2    
-0.15    -0.1    -0.45    -0.5    -0.4    
-0.35    -0.3    -0.25    -0.2    -0.15    
-0.1    -0.45    -0.5    -0.4    -0.35    
-0.3    -0.25    -0.2    -0.15    -0.1    
-0.45    -0.45    -0.5    -0.5    -0.4    
-0.4    -0.35    -0.35    -0.3    -0.3    
-0.25    -0.25    -0.2    -0.2    -0.15    
-0.15    -0.1    -0.1    -0.45    -0.5    
-0.4    -0.35    -0.3    -0.25    -0.2    
-0.15    -0.1    -0.45    -0.5    -0.4    
-0.35    -0.3    -0.25    -0.2    -0.15    
-0.1    -0.45    -0.5    -0.4    -0.35    
-0.3    -0.25    -0.2    -0.15    -0.1    
-0.45    -0.5    -0.4    -0.35    -0.3    
-0.25    -0.2    -0.15    -0.1    -0.45    
-0.5    -0.4    -0.35    -0.3    -0.25    
-0.2    -0.15    -0.1    -0.45    -0.45    
-0.5    -0.5    -0.4    -0.4    -0.35    
-0.35    -0.3    -0.3    -0.25    -0.25    
-0.2    -0.2    -0.15    -0.15    -0.1    
-0.1    -0.45    -0.5    -0.4    -0.35    
-0.3    -0.25    -0.2    -0.15    -0.1    
-0.45    -0.5    -0.4    -0.35    -0.3    
-0.25    -0.2    -0.15    -0.1    -0.45    
-0.5    -0.4    -0.35    -0.3    -0.25    
-0.2    -0.15    -0.1    -0.45    -0.5    
-0.4    -0.35    -0.3    -0.25    -0.2    
-0.15    -0.1    -0.45    -0.5    -0.4    
-0.35    -0.3    -0.25    -0.2    -0.15    
-0.1    -0.45    -0.45    -0.5    -0.5    
-0.4    -0.4    -0.35    -0.35    -0.3    
-0.3    -0.25    -0.25    -0.2    -0.2    
-0.15    -0.15    -0.1    -0.1    -0.45    
-0.5    -0.4    -0.35    -0.3    -0.25    
-0.2    -0.15    -0.1    -0.45    -0.5    
-0.4    -0.35    -0.3    -0.25    -0.2    
-0.15    -0.1    -0.45    -0.5    -0.4    
-0.35    -0.3    -0.25    -0.2    -0.15    
-0.1    -0.45    -0.5    -0.4    -0.35    
-0.3    -0.25    -0.2    -0.15    -0.1    
-0.45    -0.5    -0.4    -0.35    -0.3    
-0.25    -0.2    -0.15    -0.1    -0.45    
-0.45    -0.5    -0.5    -0.4    -0.4    
-0.35    -0.35    -0.3    -0.3    -0.25    
-0.25    -0.2    -0.2    -0.15    -0.15    
-0.1    -0.1    -0.45    -0.5    -0.4    
-0.35    -0.3    -0.25    -0.2    -0.15    
-0.1    -0.45    -0.5    -0.4    -0.35    
-0.3    -0.25    -0.2    -0.15    -0.1    
-0.45    -0.5    -0.4    -0.35    -0.3    
-0.25    -0.2    -0.15    -0.1    -0.45    
-0.5    -0.4    -0.35    -0.3    -0.25    
-0.2    -0.15    -0.1    -0.45    -0.5    
-0.4    -0.35    -0.3    -0.25    -0.2    
-0.15    -0.1    -0.5    
0.5    0.45    0.45    0.5    0.45    
0.45    0.5    0.5    0.45    0.45    
0.5    0.5    0.45    0.45    0.5    
0.5    0.45    0.45    0.5    0.5    
0.45    0.45    0.5    0.5    0.45    
0.45    0.5    0.5    0.45    0.45    
0.5    0.5    0.45    0.45    0.5    
0.4    0.4    0.4    0.4    0.4    
0.4    0.4    0.4    0.4    0.4    
0.4    0.4    0.4    0.4    0.4    
0.4    0.4    0.4    0.35    0.35    
0.35    0.35    0.35    0.35    0.35    
0.35    0.35    0.35    0.35    0.35    
0.35    0.35    0.35    0.35    0.35    
0.35    0.3    0.3    0.3    0.3    
0.3    0.3    0.3    0.3    0.3    
0.3    0.3    0.3    0.3    0.3    
0.3    0.3    0.3    0.3    0.25    
0.25    0.25    0.25    0.25    0.25    
0.25    0.25    0.25    0.25    0.25    
0.25    0.25    0.25    0.25    0.25    
0.25    0.25    0.2    0.2    0.2    
0.2    0.2    0.2    0.2    0.2    
0.2    0.2    0.2    0.2    0.2    
0.2    0.2    0.2    0.2    0.2    
0.15    0.15    0.15    0.15    0.15    
0.15    0.15    0.15    0.15    0.15    
0.15    0.15    0.5    0.45    0.45    
0.5    0.5    0.45    0.5    0.45    
0.5    0.45    0.5    0.45    0.5    
0.45    0.5    0.45    0.5    0.45    
0.4    0.4    0.4    0.4    0.4    
0.4    0.4    0.4    0.4    0.35    
0.35    0.35    0.35    0.35    0.35    
0.35    0.35    0.35    0.3    0.3    
0.3    0.3    0.3    0.3    0.3    
0.3    0.3    0.25    0.25    0.25    
0.25    0.25    0.25    0.25    0.25    
0.25    0.2    0.2    0.2    0.2    
0.2    0.2    0.2    0.2    0.2    
0.15    0.15    0.15    0.15    0.15    
0.15    0.5    0.45    0.45    0.5    
0.5    0.45    0.5    0.45    0.5    
0.45    0.5    0.45    0.5    0.45    
0.5    0.45    0.5    0.45    0.4    
0.4    0.4    0.4    0.4    0.4    
0.4    0.4    0.4    0.35    0.35    
0.35    0.35    0.35    0.35    0.35    
0.35    0.35    0.3    0.3    0.3    
0.3    0.3    0.3    0.3    0.3    
0.3    0.25    0.25    0.25    0.25    
0.25    0.25    0.25    0.25    0.25    
0.2    0.2    0.2    0.2    0.2    
0.2    0.2    0.2    0.2    0.15    
0.15    0.15    0.15    0.15    0.15    
0.5    0.45    0.45    0.5    0.5    
0.45    0.5    0.45    0.5    0.45    
0.5    0.45    0.5    0.45    0.5    
0.45    0.5    0.45    0.4    0.4    
0.4    0.4    0.4    0.4    0.4    
0.4    0.4    0.35    0.35    0.35    
0.35    0.35    0.35    0.35    0.35    
0.35    0.3    0.3    0.3    0.3    
0.3    0.3    0.3    0.3    0.3    
0.25    0.25    0.25    0.25    0.25    
0.25    0.25    0.25    0.25    0.2    
0.2    0.2    0.2    0.2    0.2    
0.2    0.2    0.2    0.15    0.15    
0.15    0.15    0.15    0.15    0.5    
0.45    0.45    0.5    0.5    0.45    
0.5    0.45    0.5    0.45    0.5    
0.45    0.5    0.45    0.5    0.45    
0.5    0.45    0.4    0.4    0.4    
0.4    0.4    0.4    0.4    0.4    
0.4    0.35    0.35    0.35    0.35    
0.35    0.35    0.35    0.35    0.35    
0.3    0.3    0.3    0.3    0.3    
0.3    0.3    0.3    0.3    0.25    
0.25    0.25    0.25    0.25    0.25    
0.25    0.25    0.25    0.2    0.2    
0.2    0.2    0.2    0.2    0.2    
0.2    0.2    0.5    0.45    0.45    
0.5    0.5    0.45    0.5    0.45    
0.5    0.45    0.5    0.45    0.5    
0.45    0.5    0.45    0.5    0.45    
0.4    0.4    0.4    0.4    0.4    
0.4    0.4    0.4    0.4    0.35    
0.35    0.35    0.35    0.35    0.35    
0.35    0.35    0.35    0.3    0.3    
0.3    0.3    0.3    0.3    0.3    
0.3    0.3    0.25    0.25    0.25    
0.25    0.25    0.25    0.25    0.25    
0.25    0.2    0.2    0.2    0.2    
0.2    0.2    0.2    0.2    0.2    
0.5    0.45    0.45    0.5    0.5    
0.45    0.5    0.45    0.5    0.45    
0.5    0.45    0.5    0.45    0.5    
0.45    0.5    0.45    0.4    0.4    
0.4    0.4    0.4    0.4    0.4    
0.4    0.4    0.35    0.35    0.35    
0.35    0.35    0.35    0.35    0.35    
0.35    0.3    0.3    0.3    0.3    
0.3    0.3    0.3    0.3    0.3    
0.25    0.25    0.25    0.25    0.25    
0.25    0.25    0.25    0.25    0.2    
0.2    0.2    0.2    0.2    0.2    
0.2    0.2    0.2    0.5    0.45    
0.45    0.5    0.5    0.45    0.5    
0.45    0.5    0.45    0.5    0.45    
0.5    0.45    0.5    0.45    0.5    
0.45    0.4    0.4    0.4    0.4    
0.4    0.4    0.4    0.4    0.4    
0.35    0.35    0.35    0.35    0.35    
0.35    0.35    0.35    0.35    0.3    
0.3    0.3    0.3    0.3    0.3    
0.3    0.3    0.3    0.25    0.25    
0.25    0.25    0.25    0.25    0.25    
0.25    0.25    0.2    0.2    0.2    
0.2    0.2    0.2    0.2    0.2    
0.2    0.5    0.45    0.45    0.5    
0.5    0.45    0.5    0.45    0.5    
0.45    0.5    0.45    0.5    0.45    
0.5    0.45    0.5    0.45    0.4    
0.4    0.4    0.4    0.4    0.4    
0.4    0.4    0.4    0.35    0.35    
0.35    0.35    0.35    0.35    0.35    
0.35    0.35    0.3    0.3    0.3    
0.3    0.3    0.3    0.3    0.3    
0.3    0.25    0.25    0.25    0.25    
0.25    0.25    0.25    0.25    0.25    
0.2    0.2    0.2    0.2    0.2    
0.2    0.2    0.2    0.2    0.5    
0.45    0.45    0.5    0.5    0.45    
0.5    0.45    0.5    0.45    0.5    
0.45    0.5    0.45    0.5    0.45    
0.5    0.45    0.4    0.4    0.4    
0.4    0.4    0.4    0.4    0.4    
0.4    0.35    0.35    0.35    0.35    
0.35    0.35    0.35    0.35    0.35    
0.3    0.3    0.3    0.3    0.3    
0.3    0.3    0.3    0.3    0.25    
0.25    0.25    0.25    0.25    0.25    
0.25    0.25    0.25    0.2    0.2    
0.2    0.2    0.2    0.2    0.2    
0.2    0.2    0.5    
399.967173436    399.989249662    399.968036759    399.968036759    399.943330211    
399.902403809    399.902403809    399.916402124    399.831533065    399.831533065    
399.884841437    399.75152267    399.75152267    399.846733066    399.657798152    
399.657798152    399.799596923    399.544713085    399.544713085    399.740085238    
399.404978541    399.404978541    399.228795849    399.228795849    399.947674897    
399.904965709    399.840245911    399.709837489    399.724291694    399.499183069    
399.593475518    399.261449832    399.440392708    398.983117163    399.255945262    
398.64753657    399.028458863    398.233285064    398.742359021    397.711681051    
399.928692026    399.844424476    399.782316711    399.525034269    399.62441488    
399.180372481    399.446444842    398.791676711    399.238469887    398.337060135    
398.988356667    397.789695513    398.680661373    397.11526784    398.294990025    
396.268184751    399.911562002    399.787982594    399.730063291    399.352800869    
399.53440114    398.883449776    399.314116514    398.354637092    399.057105117    
397.736989876    398.748692682    396.99472746    398.370373865    396.082450191    
397.89799377    394.940450375    399.896691758    399.737048939    399.684723609    
399.197439578    399.456370797    398.615842496    399.199577933    397.961286561    
398.900467934    397.197988802    398.54234177    396.282671352    398.104340642    
395.160928583    397.559557126    393.762034096    399.6928336    399.062631591    
398.383855329    399.105285585    397.620804704    398.771797777    396.732452936    
398.373345119    395.669546012    397.887359015    394.370752716    397.285041832    
392.757279924    397.340497937    396.350018391    395.167375355    393.726204394    
391.942171707    399.947674897    399.840245912    399.724291694    399.593475518    
399.440392709    399.255945263    399.028458863    398.742359022    399.844424476    
399.52503427    399.180372482    398.791676711    398.337060136    397.789695514    
397.115267842    396.268184752    399.745313863    399.22252439    398.658599372    
398.023065201    397.28048884    396.387635811    395.289532665    393.913693466    
399.652911848    398.940582284    398.172630834    397.307974784    396.299055872    
395.088201168    393.602665514    391.747502667    399.569524801    398.686250282    
397.734622589    396.664329758    395.417426972    393.924144581    392.097289282    
389.824371672    399.497134254    398.46555608    397.354897117    396.107157525    
394.655891773    392.92168195    390.806216747    388.184157172    395.648427369    
394.030238776    392.100522803    389.752882915    386.853151501    399.928692026    
399.782316712    399.624414881    399.446444843    399.238469889    398.988356669    
398.680661375    398.294990027    399.787982595    399.35280087    398.883449778    
398.354637095    397.73698988    396.994727465    396.082450195    394.940450378    
399.652911848    398.940582286    398.172630837    397.307974788    396.299055878    
395.088201174    393.60266552    391.747502674    399.526979392    398.556375481    
397.510556199    396.334129935    394.963253595    393.320977767    391.311017108    
388.808976606    399.413328281    398.209776361    396.913785046    395.457510112    
393.763151049    391.737596767    389.265408604    386.199174444    399.314659981    
397.909002053    396.396387389    394.698594438    392.726392477    390.373769788    
387.510536456    383.972412148    394.073709925    391.874519392    389.25640339    
386.07843587    382.164743268    399.911562002    399.730063293    399.534401142    
399.314116517    399.057105121    398.748692687    398.37037387    397.897993775    
399.737048941    399.197439582    398.615842502    397.96128657    397.197988814    
396.282671366    395.160928597    393.762034111    399.569524803    398.686250288    
397.734622599    396.664329773    395.41742699    393.924144602    392.097289307    
389.824371701    399.413328282    398.209776367    396.913785056    395.457510125    
393.763151066    391.737596788    389.265408628    386.199174472    399.272357426    
397.779917029    396.173857627    394.371070444    392.276726376    389.778128822    
386.736837577    382.978128201    399.149964191    397.406867195    395.532294089    
393.430409204    390.992428429    388.090007703    384.566975586    380.228582546    
399.896691759    399.684723612    399.456370802    399.19957794    398.900467941    
398.542341779    398.104340652    397.559557136    399.692833602    399.0626316    
398.383855346    397.620804723    396.732452959    395.669546038    394.370752745    
392.757279957    399.497134258    398.465556094    397.354897142    396.107157557    
394.655891808    392.921681993    390.806216797    388.184157231    399.314659985    
397.909002069    396.396387419    394.698594473    392.72639252    390.373769839    
387.510536519    383.972412221    399.149964194    397.406867206    395.532294107    
393.430409229    390.992428463    388.090007747    384.566975641    380.228582614    
399.006964307    396.971065264    394.783010225    392.332270279    389.494025898    
386.122075242    382.040201138    377.031308255    399.884414854    399.647307828    
399.392037573    399.105285594    398.771797788    398.373345132    397.88735903    
397.285041849    399.656328659    398.951381369    398.192585314    397.340497967    
396.350018428    395.167375398    393.726204444    391.942171765    399.437365317    
398.283421215    397.04180384    395.648427415    394.030238834    392.100522868    
389.752882995    386.853151598    399.233191091    397.66076535    395.969751666    
394.07370998    391.874519466    389.256403478    386.078435979    382.164743407    
399.04890043    397.098960587    395.003232949    392.655797616    389.937009029    
386.706668483    382.79568828    377.995553692    398.888878247    396.61134134    
394.165068815    391.427883588    388.262476515    384.509104545    379.976936106    
374.433516107    399.874990583    399.618597385    399.342713475    399.03308789    
398.673467419    398.244541922    397.722581128    397.077577576    399.628305468    
398.866013602    398.045935795    397.125866329    396.057747628    394.784615488    
393.236684743    391.326074996    399.391481997    398.143655326    396.801740293    
395.297156305    393.552053016    391.474554521    388.952766289    385.846868936    
399.170646552    397.470265482    395.642610461    393.595169236    391.223362957    
388.404504227    384.990361195    380.797638676    398.971308888    396.862656259    
394.597524917    392.062540934    389.130163638    385.651797854    381.449559794    
376.306124307    398.798213222    396.335253709    393.691169681    390.735170019    
387.320861047    383.27890079    378.408498065    372.467370643    399.868606958    
399.599156205    399.309335681    398.98428241    398.607096701    398.157784286    
397.611904616    396.938750727    399.609323434    398.808206272    397.946695768    
396.980772392    395.860465091    394.526788728    392.907866133    390.913766351    
399.360401316    398.04900938    396.639280035    395.059681536    393.22925786    
391.052865253    388.415245347    385.173311355    399.128278402    397.341258949    
395.421211176    393.271634773    390.783768161    387.830545372    384.259262194    
379.882333904    398.918745749    396.702623991    394.322939233    391.661420186    
388.585410042    384.940990211    380.544889119    375.174691639    398.736791185    
396.148270552    393.370413932    390.266768622    386.68505093    382.449829102    
377.354208072    371.150232152    399.865385445    399.589347135    399.29250191    
398.959684207    398.573677696    398.114158025    397.556350033    396.869230521    
399.59974402    398.779039248    397.896644438    396.907643222    395.761127245    
394.397136139    392.742807029    390.707282023    399.344715994    398.001254388    
396.557342061    394.939987848    393.066714119    390.840799704    388.145400865    
384.835954044    399.106896241    397.276165277    395.309543606    393.10855834    
390.562397981    387.541882209    383.892198251    379.423823254    398.892217774    
396.62187322    394.184441204    391.45922752    388.311067166    384.583469821    
380.09062283    374.607812399    398.705791433    396.053917893    393.208622467    
390.030650786    386.364830559    382.032786812    376.824744658    370.490187935    

-0.425    -0.475    -0.475    -0.475    -0.375    
-0.425    -0.425    -0.325    -0.375    -0.375    
-0.275    -0.325    -0.325    -0.225    -0.275    
-0.275    -0.175    -0.225    -0.225    -0.125    
-0.175    -0.175    -0.125    -0.125    -0.475    
-0.475    -0.425    -0.425    -0.375    -0.375    
-0.325    -0.325    -0.275    -0.275    -0.225    
-0.225    -0.175    -0.175    -0.125    -0.125    
-0.475    -0.475    -0.425    -0.425    -0.375    
-0.375    -0.325    -0.325    -0.275    -0.275    
-0.225    -0.225    -0.175    -0.175    -0.125    
-0.125    -0.475    -0.475    -0.425    -0.425    
-0.375    -0.375    -0.325    -0.325    -0.275    
-0.275    -0.225    -0.225    -0.175    -0.175    
-0.125    -0.125    -0.475    -0.475    -0.425    
-0.425    -0.375    -0.375    -0.325    -0.325    
-0.275    -0.275    -0.225    -0.225    -0.175    
-0.175    -0.125    -0.125    -0.475    -0.425    
-0.375    -0.325    -0.325    -0.275    -0.275    
-0.225    -0.225    -0.175    -0.175    -0.125    
-0.125    -0.325    -0.275    -0.225    -0.175    
-0.125    -0.475    -0.425    -0.375    -0.325    
-0.275    -0.225    -0.175    -0.125    -0.475    
-0.425    -0.375    -0.325    -0.275    -0.225    
-0.175    -0.125    -0.475    -0.425    -0.375    
-0.325    -0.275    -0.225    -0.175    -0.125    
-0.475    -0.425    -0.375    -0.325    -0.275    
-0.225    -0.175    -0.125    -0.475    -0.425    
-0.375    -0.325    -0.275    -0.225    -0.175    
-0.125    -0.475    -0.425    -0.375    -0.325    
-0.275    -0.225    -0.175    -0.125    -0.325    
-0.275    -0.225    -0.175    -0.125    -0.475    
-0.425    -0.375    -0.325    -0.275    -0.225    
-0.175    -0.125    -0.475    -0.425    -0.375    
-0.325    -0.275    -0.225    -0.175    -0.125    
-0.475    -0.425    -0.375    -0.325    -0.275    
-0.225    -0.175    -0.125    -0.475    -0.425    
-0.375    -0.325    -0.275    -0.225    -0.175    
-0.125    -0.475    -0.425    -0.375    -0.325    
-0.275    -0.225    -0.175    -0.125    -0.475    
-0.425    -0.375    -0.325    -0.275    -0.225    
-0.175    -0.125    -0.325    -0.275    -0.225    
-0.175    -0.125    -0.475    -0.425    -0.375    
-0.325    -0.275    -0.225    -0.175    -0.125    
-0.475    -0.425    -0.375    -0.325    -0.275    
-0.225    -0.175    -0.125    -0.475    -0.425    
-0.375    -0.325    -0.275    -0.225    -0.175    
-0.125    -0.475    -0.425    -0.375    -0.325    
-0.275    -0.225    -0.175    -0.125    -0.475    
-0.425    -0.375    -0.325    -0.275    -0.225    
-0.175    -0.125    -0.475    -0.425    -0.375    
-0.325    -0.275    -0.225    -0.175    -0.125    
-0.475    -0.425    -0.375    -0.325    -0.275    
-0.225    -0.175    -0.125    -0.475    -0.425    
-0.375    -0.325    -0.275    -0.225    -0.175    
-0.125    -0.475    -0.425    -0.375    -0.325    
-0.275    -0.225    -0.175    -0.125    -0.475    
-0.425    -0.375    -0.325    -0.275    -0.225    
-0.175    -0.125    -0.475    -0.425    -0.375    
-0.325    -0.275    -0.225    -0.175    -0.125    
-0.475    -0.425    -0.375    -0.325    -0.275    
-0.225    -0.175    -0.125    -0.475    -0.425    
-0.375    -0.325    -0.275    -0.225    -0.175    
-0.125    -0.475    -0.425    -0.375    -0.325    
-0.275    -0.225    -0.175    -0.125    -0.475    
-0.425    -0.375    -0.325    -0.275    -0.225    
-0.175    -0.125    -0.475    -0.425    -0.375    
-0.325    -0.275    -0.225    -0.175    -0.125    
-0.475    -0.425    -0.375    -0.325    -0.275    