Title = " tecplot file for 2D Cavity problem " 
variables = "x", "y", "z", "velX", "cellCentroidY" 
Zone T = "nmesh0" N = 732 E = 501 DATAPACKING = BLOCK, VARLOCATION = ([4-5]=CELLCENTERED), ZONETYPE=FEBRICK
0.45    0.45    0.5    0.5    0.45    
0.5    0.45    0.5    0.45    0.5    
0.45    0.5    0.45    0.5    0.45    
0.5    0.45    0.5    0.45    0.5    
0.45    0.5    0.45    0.5    0.45    
0.5    0.45    0.5    0.45    0.5    
0.45    0.5    0.45    0.5    0.45    
0.5    0.45    0.5    0.45    0.5    
0.45    0.5    0.45    0.5    0.45    
0.5    0.45    0.5    0.45    0.5    
0.45    0.5    0.45    0.5    0.45    
0.5    0.45    0.5    0.45    0.5    
0.45    0.5    0.45    0.5    0.45    
0.5    0.45    0.5    0.45    0.5    
0.45    0.5    0.45    0.5    0.45    
0.5    0.45    0.5    0.45    0.5    
0.45    0.5    0.45    0.5    0.45    
0.5    0.45    0.5    0.45    0.5    
0.45    0.5    0.45    0.5    0.45    
0.5    0.45    0.5    0.45    0.5    
0.45    0.5    0.45    0.5    0.45    
0.5    0.45    0.5    0.45    0.5    
0.45    0.5    0.45    0.5    0.45    
0.5    0.45    0.5    0.45    0.5    
0.45    0.5    0.45    0.5    0.45    
0.5    0.45    0.5    0.45    0.45    
0.5    0.45    0.5    0.45    0.5    
0.45    0.5    0.45    0.5    0.4    
0.4    0.4    0.4    0.4    0.4    
0.4    0.4    0.4    0.4    0.4    
0.4    0.4    0.4    0.4    0.4    
0.4    0.4    0.4    0.4    0.4    
0.4    0.4    0.4    0.4    0.4    
0.4    0.4    0.4    0.4    0.4    
0.4    0.4    0.4    0.4    0.4    
0.4    0.4    0.4    0.4    0.4    
0.4    0.4    0.4    0.4    0.4    
0.4    0.4    0.4    0.4    0.4    
0.4    0.4    0.4    0.4    0.4    
0.4    0.4    0.4    0.4    0.4    
0.4    0.4    0.4    0.4    0.4    
0.4    0.4    0.4    0.4    0.35    
0.35    0.35    0.35    0.35    0.35    
0.35    0.35    0.35    0.35    0.35    
0.35    0.35    0.35    0.35    0.35    
0.35    0.35    0.35    0.35    0.35    
0.35    0.35    0.35    0.35    0.35    
0.35    0.35    0.35    0.35    0.35    
0.35    0.35    0.35    0.35    0.35    
0.35    0.35    0.35    0.35    0.35    
0.35    0.35    0.35    0.35    0.35    
0.35    0.35    0.35    0.35    0.35    
0.35    0.35    0.35    0.35    0.35    
0.35    0.35    0.35    0.35    0.35    
0.35    0.35    0.35    0.35    0.35    
0.35    0.35    0.35    0.35    0.3    
0.3    0.3    0.3    0.3    0.3    
0.3    0.3    0.3    0.3    0.3    
0.3    0.3    0.3    0.3    0.3    
0.3    0.3    0.3    0.3    0.3    
0.3    0.3    0.3    0.3    0.3    
0.3    0.3    0.3    0.3    0.3    
0.3    0.3    0.3    0.3    0.3    
0.3    0.3    0.3    0.3    0.3    
0.3    0.3    0.3    0.3    0.3    
0.3    0.3    0.3    0.3    0.3    
0.3    0.3    0.3    0.3    0.3    
0.3    0.3    0.3    0.3    0.3    
0.3    0.3    0.3    0.3    0.3    
0.3    0.3    0.3    0.3    0.25    
0.25    0.25    0.25    0.25    0.25    
0.25    0.25    0.25    0.25    0.25    
0.25    0.25    0.25    0.25    0.25    
0.25    0.25    0.25    0.25    0.25    
0.25    0.25    0.25    0.25    0.25    
0.25    0.25    0.25    0.25    0.25    
0.25    0.25    0.25    0.25    0.25    
0.25    0.25    0.25    0.25    0.25    
0.25    0.25    0.25    0.25    0.25    
0.25    0.25    0.25    0.25    0.25    
0.25    0.25    0.25    0.25    0.25    
0.25    0.25    0.25    0.25    0.25    
0.25    0.25    0.2    0.2    0.2    
0.2    0.2    0.2    0.2    0.2    
0.2    0.2    0.2    0.2    0.2    
0.2    0.2    0.2    0.2    0.2    
0.2    0.2    0.2    0.2    0.2    
0.2    0.2    0.2    0.2    0.2    
0.2    0.2    0.2    0.2    0.2    
0.2    0.2    0.2    0.2    0.2    
0.2    0.2    0.2    0.2    0.2    
0.2    0.2    0.2    0.2    0.2    
0.2    0.2    0.2    0.2    0.2    
0.2    0.2    0.2    0.2    0.2    
0.2    0.2    0.2    0.2    0.2    
0.15    0.15    0.15    0.15    0.15    
0.15    0.15    0.15    0.15    0.15    
0.15    0.15    0.15    0.15    0.15    
0.15    0.15    0.15    0.15    0.15    
0.15    0.15    0.15    0.15    0.15    
0.15    0.15    0.15    0.15    0.15    
0.15    0.15    0.15    0.15    0.15    
0.15    0.15    0.15    0.15    0.15    
0.15    0.15    0.15    0.15    0.15    
0.15    0.15    0.15    0.15    0.15    
0.15    0.15    0.15    0.15    0.15    
0.15    0.15    0.15    0.15    0.15    
0.15    0.15    0.15    0.15    0.1    
0.1    0.1    0.1    0.1    0.1    
0.1    0.1    0.1    0.1    0.1    
0.1    0.1    0.1    0.1    0.1    
0.1    0.1    0.1    0.1    0.1    
0.1    0.1    0.1    0.1    0.1    
0.1    0.1    0.1    0.1    0.1    
0.1    0.1    0.1    0.1    0.1    
0.1    0.1    0.1    0.1    0.1    
0.1    0.1    0.1    0.1    0.1    
0.1    0.1    0.1    0.1    0.1    
0.1    0.1    0.1    0.1    0.1    
0.1    0.1    0.1    0.1    0.1    
0.1    0.1    0.1    0.05    0.05    
0.05    0.05    0.05    0.05    0.05    
0.05    0.05    0.05    0.05    0.05    
0.05    0.05    0.05    0.05    0.05    
0.05    0.05    0.05    0.05    0.05    
0.05    0.05    0.05    0.05    0.05    
0.05    0.05    0.05    0.05    0.05    
0.05    0.05    0.05    0.05    0.05    
0.05    0.05    0.05    0.05    0.05    
0.05    0.05    0.05    0.05    0.05    
0.05    0.05    0.05    0.05    0.05    
0.05    0.05    0.05    0.05    0.05    
0.05    0.05    0.05    0.05    0.05    
0.05    0.05    0.0    0.0    0.0    
0.0    0.0    0.0    -2.7755575616e-17    -2.7755575616e-17    
-2.7755575616e-17    -2.7755575616e-17    -2.7755575616e-17    -2.7755575616e-17    0.0    
0.0    -2.7755575616e-17    -2.7755575616e-17    0.0    0.0    
0.0    0.0    0.0    0.0    -2.7755575616e-17    
-2.7755575616e-17    0.0    0.0    0.0    0.0    
0.0    0.0    -2.7755575616e-17    -2.7755575616e-17    -2.4651903288e-32    
0.0    0.0    0.0    0.0    0.0    
-2.7755575616e-17    -2.7755575616e-17    0.0    0.0    0.0    
0.0    0.0    0.0    -2.7755575616e-17    -2.7755575616e-17    
0.0    0.0    0.0    0.0    0.0    
0.0    -2.7755575616e-17    -2.7755575616e-17    0.0    0.0    
0.0    0.0    0.0    0.0    -2.7755575616e-17    
-2.7755575616e-17    0.5    
-0.45    -0.5    -0.5    -0.45    -0.4    
-0.4    -0.35    -0.35    -0.3    -0.3    
-0.25    -0.25    -0.2    -0.2    -0.45    
-0.45    -0.5    -0.5    -0.4    -0.4    
-0.35    -0.35    -0.3    -0.3    -0.25    
-0.25    -0.2    -0.2    -0.45    -0.45    
-0.5    -0.5    -0.4    -0.4    -0.35    
-0.35    -0.3    -0.3    -0.25    -0.25    
-0.2    -0.2    -0.45    -0.45    -0.5    
-0.5    -0.4    -0.4    -0.35    -0.35    
-0.3    -0.3    -0.25    -0.25    -0.2    
-0.2    -0.45    -0.45    -0.5    -0.5    
-0.4    -0.4    -0.35    -0.35    -0.3    
-0.3    -0.25    -0.25    -0.2    -0.2    
-0.45    -0.45    -0.5    -0.5    -0.4    
-0.4    -0.35    -0.35    -0.3    -0.3    
-0.25    -0.25    -0.2    -0.2    -0.45    
-0.45    -0.5    -0.5    -0.4    -0.4    
-0.35    -0.35    -0.3    -0.3    -0.25    
-0.25    -0.2    -0.2    -0.45    -0.45    
-0.5    -0.5    -0.4    -0.4    -0.35    
-0.35    -0.3    -0.3    -0.25    -0.25    
-0.2    -0.2    -0.45    -0.45    -0.5    
-0.5    -0.4    -0.4    -0.35    -0.35    
-0.3    -0.3    -0.25    -0.25    -0.2    
-0.2    -0.45    -0.45    -0.5    -0.4    
-0.4    -0.35    -0.35    -0.3    -0.3    
-0.25    -0.25    -0.2    -0.2    -0.45    
-0.5    -0.4    -0.35    -0.3    -0.25    
-0.2    -0.45    -0.5    -0.4    -0.35    
-0.3    -0.25    -0.2    -0.45    -0.5    
-0.4    -0.35    -0.3    -0.25    -0.2    
-0.45    -0.5    -0.4    -0.35    -0.3    
-0.25    -0.2    -0.45    -0.5    -0.4    
-0.35    -0.3    -0.25    -0.2    -0.45    
-0.5    -0.4    -0.35    -0.3    -0.25    
-0.2    -0.45    -0.5    -0.4    -0.35    
-0.3    -0.25    -0.2    -0.45    -0.5    
-0.4    -0.35    -0.3    -0.25    -0.2    
-0.45    -0.5    -0.4    -0.35    -0.3    
-0.25    -0.2    -0.45    -0.5    -0.4    
-0.35    -0.3    -0.25    -0.2    -0.45    
-0.5    -0.4    -0.35    -0.3    -0.25    
-0.2    -0.45    -0.5    -0.4    -0.35    
-0.3    -0.25    -0.2    -0.45    -0.5    
-0.4    -0.35    -0.3    -0.25    -0.2    
-0.45    -0.5    -0.4    -0.35    -0.3    
-0.25    -0.2    -0.45    -0.5    -0.4    
-0.35    -0.3    -0.25    -0.2    -0.45    
-0.5    -0.4    -0.35    -0.3    -0.25    
-0.2    -0.45    -0.5    -0.4    -0.35    
-0.3    -0.25    -0.2    -0.45    -0.5    
-0.4    -0.35    -0.3    -0.25    -0.2    
-0.45    -0.5    -0.4    -0.35    -0.3    
-0.25    -0.2    -0.45    -0.5    -0.4    
-0.35    -0.3    -0.25    -0.2    -0.45    
-0.5    -0.4    -0.35    -0.3    -0.25    
-0.2    -0.45    -0.5    -0.4    -0.35    
-0.3    -0.25    -0.2    -0.45    -0.5    
-0.4    -0.35    -0.3    -0.25    -0.2    
-0.45    -0.5    -0.4    -0.35    -0.3    
-0.25    -0.2    -0.45    -0.5    -0.4    
-0.35    -0.3    -0.25    -0.2    -0.45    
-0.5    -0.4    -0.35    -0.3    -0.25    
-0.2    -0.45    -0.5    -0.4    -0.35    
-0.3    -0.25    -0.2    -0.45    -0.5    
-0.4    -0.35    -0.3    -0.25    -0.2    
-0.45    -0.5    -0.4    -0.35    -0.3    
-0.25    -0.2    -0.45    -0.5    -0.4    
-0.35    -0.3    -0.25    -0.2    -0.45    
-0.5    -0.4    -0.35    -0.3    -0.25    
-0.2    -0.45    -0.5    -0.4    -0.35    
-0.3    -0.25    -0.2    -0.45    -0.5    
-0.4    -0.35    -0.3    -0.25    -0.2    
-0.45    -0.5    -0.4    -0.35    -0.3    
-0.25    -0.2    -0.45    -0.5    -0.4    
-0.35    -0.3    -0.25    -0.2    -0.45    
-0.5    -0.4    -0.35    -0.3    -0.25    
-0.2    -0.45    -0.5    -0.4    -0.35    
-0.3    -0.25    -0.2    -0.45    -0.5    
-0.4    -0.35    -0.3    -0.25    -0.2    
-0.45    -0.5    -0.4    -0.35    -0.3    
-0.25    -0.2    -0.45    -0.5    -0.4    
-0.35    -0.3    -0.25    -0.2    -0.45    
-0.5    -0.4    -0.35    -0.3    -0.25    
-0.2    -0.45    -0.5    -0.4    -0.35    
-0.3    -0.25    -0.2    -0.45    -0.5    
-0.4    -0.35    -0.3    -0.25    -0.2    
-0.45    -0.5    -0.4    -0.35    -0.3    
-0.25    -0.2    -0.45    -0.5    -0.4    
-0.35    -0.3    -0.25    -0.2    -0.45    
-0.5    -0.4    -0.35    -0.3    -0.25    
-0.2    -0.45    -0.5    -0.4    -0.35    
-0.3    -0.25    -0.2    -0.45    -0.5    
-0.4    -0.35    -0.3    -0.25    -0.2    
-0.45    -0.5    -0.4    -0.35    -0.3    
-0.25    -0.2    -0.45    -0.5    -0.4    
-0.35    -0.3    -0.25    -0.2    -0.15    
-0.15    -0.45    -0.5    -0.4    -0.35    
-0.3    -0.25    -0.2    -0.15    -0.45    
-0.5    -0.4    -0.35    -0.3    -0.25    
-0.2    -0.15    -0.45    -0.5    -0.4    
-0.35    -0.3    -0.25    -0.2    -0.15    
-0.45    -0.5    -0.4    -0.35    -0.3    
-0.25    -0.2    -0.15    -0.45    -0.5    
-0.4    -0.35    -0.3    -0.25    -0.2    
-0.15    -0.45    -0.5    -0.4    -0.35    
-0.3    -0.25    -0.2    -0.15    -0.45    
-0.5    -0.4    -0.35    -0.3    -0.25    
-0.2    -0.15    -0.45    -0.5    -0.4    
-0.35    -0.3    -0.25    -0.2    -0.15    
-0.45    -0.5    -0.4    -0.35    -0.3    
-0.25    -0.2    -0.15    -0.45    -0.5    
-0.4    -0.35    -0.3    -0.25    -0.2    
-0.15    -0.45    -0.5    -0.4    -0.35    
-0.3    -0.25    -0.2    -0.15    -0.45    
-0.5    -0.4    -0.35    -0.3    -0.25    
-0.2    -0.15    -0.45    -0.5    -0.4    
-0.35    -0.3    -0.25    -0.2    -0.15    
-0.45    -0.5    -0.4    -0.35    -0.3    
-0.25    -0.2    -0.15    -0.45    -0.5    
-0.4    -0.35    -0.3    -0.25    -0.2    
-0.15    -0.45    -0.5    -0.4    -0.35    
-0.3    -0.25    -0.2    -0.15    -0.45    
-0.5    -0.4    -0.35    -0.3    -0.25    
-0.2    -0.15    -0.45    -0.5    -0.4    
-0.35    -0.3    -0.25    -0.2    -0.15    
-0.45    -0.5    -0.4    -0.35    -0.3    
-0.25    -0.2    -0.15    -0.45    -0.5    
-0.4    -0.35    -0.3    -0.25    -0.2    
-0.15    -0.45    -0.5    -0.4    -0.35    
-0.3    -0.25    -0.2    -0.15    -0.45    
-0.5    -0.4    -0.35    -0.3    -0.25    
-0.2    -0.15    -0.45    -0.5    -0.4    
-0.35    -0.3    -0.25    -0.2    -0.15    
-0.45    -0.5    -0.4    -0.35    -0.3    
-0.25    -0.2    -0.15    -0.45    -0.5    
-0.4    -0.35    -0.3    -0.25    -0.2    
-0.15    -0.45    -0.5    -0.4    -0.35    
-0.3    -0.25    -0.2    -0.15    -0.45    
-0.5    -0.4    -0.35    -0.3    -0.25    
-0.2    -0.15    -0.45    -0.5    -0.4    
-0.35    -0.3    -0.25    -0.2    -0.15    
-0.45    -0.5    -0.4    -0.35    -0.3    
-0.25    -0.2    -0.15    -0.45    -0.5    
-0.4    -0.35    -0.3    -0.25    -0.2    
-0.15    -0.5    
-0.05    -0.05    -0.05    -0.05    -0.05    
-0.05    -0.05    -0.05    -0.05    -0.05    
-0.05    -0.05    -0.05    -0.05    -0.1    
-0.1    -0.1    -0.1    -0.1    -0.1    
-0.1    -0.1    -0.1    -0.1    -0.1    
-0.1    -0.1    -0.1    -0.15    -0.15    
-0.15    -0.15    -0.15    -0.15    -0.15    
-0.15    -0.15    -0.15    -0.15    -0.15    
-0.15    -0.15    -0.2    -0.2    -0.2    
-0.2    -0.2    -0.2    -0.2    -0.2    
-0.2    -0.2    -0.2    -0.2    -0.2    
-0.2    -0.25    -0.25    -0.25    -0.25    
-0.25    -0.25    -0.25    -0.25    -0.25    
-0.25    -0.25    -0.25    -0.25    -0.25    
-0.3    -0.3    -0.3    -0.3    -0.3    
-0.3    -0.3    -0.3    -0.3    -0.3    
-0.3    -0.3    -0.3    -0.3    -0.35    
-0.35    -0.35    -0.35    -0.35    -0.35    
-0.35    -0.35    -0.35    -0.35    -0.35    
-0.35    -0.35    -0.35    -0.4    -0.4    
-0.4    -0.4    -0.4    -0.4    -0.4    
-0.4    -0.4    -0.4    -0.4    -0.4    
-0.4    -0.4    -0.45    -0.45    -0.45    
-0.45    -0.45    -0.45    -0.45    -0.45    
-0.45    -0.45    -0.45    -0.45    -0.45    
-0.45    -0.5    -0.5    -0.5    -0.5    
-0.5    -0.5    -0.5    -0.5    -0.5    
-0.5    -0.5    -0.5    -0.5    -0.05    
-0.05    -0.05    -0.05    -0.05    -0.05    
-0.05    -0.1    -0.1    -0.1    -0.1    
-0.1    -0.1    -0.1    -0.15    -0.15    
-0.15    -0.15    -0.15    -0.15    -0.15    
-0.2    -0.2    -0.2    -0.2    -0.2    
-0.2    -0.2    -0.25    -0.25    -0.25    
-0.25    -0.25    -0.25    -0.25    -0.3    
-0.3    -0.3    -0.3    -0.3    -0.3    
-0.3    -0.35    -0.35    -0.35    -0.35    
-0.35    -0.35    -0.35    -0.4    -0.4    
-0.4    -0.4    -0.4    -0.4    -0.4    
-0.45    -0.45    -0.45    -0.45    -0.45    
-0.45    -0.45    -0.5    -0.5    -0.5    
-0.5    -0.5    -0.5    -0.5    -0.05    
-0.05    -0.05    -0.05    -0.05    -0.05    
-0.05    -0.1    -0.1    -0.1    -0.1    
-0.1    -0.1    -0.1    -0.15    -0.15    
-0.15    -0.15    -0.15    -0.15    -0.15    
-0.2    -0.2    -0.2    -0.2    -0.2    
-0.2    -0.2    -0.25    -0.25    -0.25    
-0.25    -0.25    -0.25    -0.25    -0.3    
-0.3    -0.3    -0.3    -0.3    -0.3    
-0.3    -0.35    -0.35    -0.35    -0.35    
-0.35    -0.35    -0.35    -0.4    -0.4    
-0.4    -0.4    -0.4    -0.4    -0.4    
-0.45    -0.45    -0.45    -0.45    -0.45    
-0.45    -0.45    -0.5    -0.5    -0.5    
-0.5    -0.5    -0.5    -0.5    -0.05    
-0.05    -0.05    -0.05    -0.05    -0.05    
-0.05    -0.1    -0.1    -0.1    -0.1    
-0.1    -0.1    -0.1    -0.15    -0.15    
-0.15    -0.15    -0.15    -0.15    -0.15    
-0.2    -0.2    -0.2    -0.2    -0.2    
-0.2    -0.2    -0.25    -0.25    -0.25    
-0.25    -0.25    -0.25    -0.25    -0.3    
-0.3    -0.3    -0.3    -0.3    -0.3    
-0.3    -0.35    -0.35    -0.35    -0.35    
-0.35    -0.35    -0.35    -0.4    -0.4    
-0.4    -0.4    -0.4    -0.4    -0.4    
-0.45    -0.45    -0.45    -0.45    -0.45    
-0.45    -0.45    -0.5    -0.5    -0.5    
-0.5    -0.5    -0.5    -0.5    -0.1    
-0.1    -0.1    -0.1    -0.1    -0.1    
-0.1    -0.15    -0.15    -0.15    -0.15    
-0.15    -0.15    -0.15    -0.2    -0.2    
-0.2    -0.2    -0.2    -0.2    -0.2    
-0.25    -0.25    -0.25    -0.25    -0.25    
-0.25    -0.25    -0.3    -0.3    -0.3    
-0.3    -0.3    -0.3    -0.3    -0.35    
-0.35    -0.35    -0.35    -0.35    -0.35    
-0.35    -0.4    -0.4    -0.4    -0.4    
-0.4    -0.4    -0.4    -0.45    -0.45    
-0.45    -0.45    -0.45    -0.45    -0.45    
-0.5    -0.5    -0.5    -0.5    -0.5    
-0.5    -0.5    -0.1    -0.1    -0.1    
-0.1    -0.1    -0.1    -0.1    -0.15    
-0.15    -0.15    -0.15    -0.15    -0.15    
-0.15    -0.2    -0.2    -0.2    -0.2    
-0.2    -0.2    -0.2    -0.25    -0.25    
-0.25    -0.25    -0.25    -0.25    -0.25    
-0.3    -0.3    -0.3    -0.3    -0.3    
-0.3    -0.3    -0.35    -0.35    -0.35    
-0.35    -0.35    -0.35    -0.35    -0.4    
-0.4    -0.4    -0.4    -0.4    -0.4    
-0.4    -0.45    -0.45    -0.45    -0.45    
-0.45    -0.45    -0.45    -0.5    -0.5    
-0.5    -0.5    -0.5    -0.5    -0.5    
-0.15    -0.15    -0.15    -0.15    -0.15    
-0.15    -0.15    -0.2    -0.2    -0.2    
-0.2    -0.2    -0.2    -0.2    -0.2    
-0.15    -0.25    -0.25    -0.25    -0.25    
-0.25    -0.25    -0.25    -0.25    -0.3    
-0.3    -0.3    -0.3    -0.3    -0.3    
-0.3    -0.3    -0.35    -0.35    -0.35    
-0.35    -0.35    -0.35    -0.35    -0.35    
-0.4    -0.4    -0.4    -0.4    -0.4    
-0.4    -0.4    -0.4    -0.45    -0.45    
-0.45    -0.45    -0.45    -0.45    -0.45    
-0.45    -0.5    -0.5    -0.5    -0.5    
-0.5    -0.5    -0.5    -0.5    -0.15    
-0.15    -0.15    -0.15    -0.15    -0.15    
-0.15    -0.15    -0.2    -0.2    -0.2    
-0.2    -0.2    -0.2    -0.2    -0.2    
-0.25    -0.25    -0.25    -0.25    -0.25    
-0.25    -0.25    -0.25    -0.3    -0.3    
-0.3    -0.3    -0.3    -0.3    -0.3    
-0.3    -0.35    -0.35    -0.35    -0.35    
-0.35    -0.35    -0.35    -0.35    -0.4    
-0.4    -0.4    -0.4    -0.4    -0.4    
-0.4    -0.4    -0.45    -0.45    -0.45    
-0.45    -0.45    -0.45    -0.45    -0.45    
-0.5    -0.5    -0.5    -0.5    -0.5    
-0.5    -0.5    -0.5    -0.15    -0.15    
-0.15    -0.15    -0.15    -0.15    -0.15    
-0.15    -0.2    -0.2    -0.2    -0.2    
-0.2    -0.2    -0.2    -0.2    -0.25    
-0.25    -0.25    -0.25    -0.25    -0.25    
-0.25    -0.25    -0.3    -0.3    -0.3    
-0.3    -0.3    -0.3    -0.3    -0.3    
-0.35    -0.35    -0.35    -0.35    -0.35    
-0.35    -0.35    -0.35    -0.4    -0.4    
-0.4    -0.4    -0.4    -0.4    -0.4    
-0.4    -0.45    -0.45    -0.45    -0.45    
-0.45    -0.45    -0.45    -0.45    -0.5    
-0.5    -0.5    -0.5    -0.5    -0.5    
-0.5    -0.5    -0.15    -0.15    -0.15    
-0.15    -0.15    -0.15    -0.15    -0.15    
-0.2    -0.2    -0.2    -0.2    -0.2    
-0.2    -0.2    -0.2    -0.25    -0.25    
-0.25    -0.25    -0.25    -0.25    -0.25    
-0.25    -0.3    -0.3    -0.3    -0.3    
-0.3    -0.3    -0.3    -0.3    -0.35    
-0.35    -0.35    -0.35    -0.35    -0.35    
-0.35    -0.35    -0.4    -0.4    -0.4    
-0.4    -0.4    -0.4    -0.4    -0.4    
-0.45    -0.45    -0.45    -0.45    -0.45    
-0.45    -0.45    -0.45    -0.5    -0.5    
-0.5    -0.5    -0.5    -0.5    -0.5    
-0.5    -0.5    
399.599156197    399.868606956    399.87499058    399.609323426    399.309335669    
399.618597376    398.80820625    398.984282392    399.342713461    397.94669573    
398.607096675    399.033087869    396.980772338    398.157784252    398.67346739    
395.860465017    398.244541885    394.526788628    399.884414851    399.62830546    
399.64730782    398.866013577    399.39203756    398.045935753    399.105285574    
397.125866267    398.771797761    396.057747541    398.373345097    394.784615374    
399.896691757    399.656328651    399.684723605    398.951381345    399.45637079    
398.192585274    399.199577922    397.340497908    398.900467918    396.350018347    
398.542341748    395.167375292    399.911562    399.692833596    399.730063287    
399.06263158    399.534401132    398.383855311    399.314116502    397.620804672    
399.057105102    396.732452888    398.748692662    395.669545946    399.928692024    
399.737048935    399.782316707    399.197439564    399.624414874    398.615842474    
399.446444832    397.961286529    399.238469874    397.197988756    398.98835665    
396.282671292    399.947674896    399.78798259    399.840245909    399.352800857    
399.724291689    398.883449757    399.593475511    398.354637063    399.440392698    
397.736989835    399.255945251    396.99472741    399.968036759    399.844424474    
399.902403807    399.525034262    399.831533062    399.180372468    399.751522666    
398.79167669    399.657798147    398.337060106    399.544713077    397.789695475    
399.989249662    399.904965707    399.967173436    399.709837485    399.94333021    
399.499183061    399.916402122    399.261449821    399.884841435    398.983117146    
399.846733064    398.647536548    399.968036759    399.902403807    399.831533063    
399.751522667    399.657798146    399.544713077    399.360401304    398.049009344    
396.639279973    395.059681447    393.229257739    391.052865093    399.391481984    
398.143655286    396.801740223    395.297156202    393.552052875    391.474554338    
399.437365305    398.283421177    397.041803776    395.648427319    394.030238701    
392.100522699    399.497134247    398.465556061    397.354897087    396.107157474    
394.655891694    392.921681846    399.569524794    398.686250261    397.734622554    
396.664329705    395.417426897    393.924144481    399.652911842    398.940582266    
398.172630803    397.307974735    396.299055805    395.08820108    399.745313859    
399.222524378    398.658599349    398.023065167    397.280488791    396.387635749    
399.844424474    399.525034263    399.180372471    398.791676693    398.337060108    
397.789695479    399.947674896    399.840245909    399.724291691    399.593475512    
399.4403927    399.25594525    399.128278386    397.341258901    395.421211093    
393.271634652    390.783767996    387.830545153    399.170646533    397.470265426    
395.642610366    393.595169093    391.223362764    388.404503976    399.233191074    
397.6607653    395.96975158    394.073709851    391.87451929    389.256403248    
399.314659971    397.909002026    396.396387344    394.698594362    392.726392368    
390.373769639    399.41332827    398.209776331    396.913784995    395.457510035    
393.763150941    391.737596619    399.526979383    398.556375455    397.510556154    
396.334129866    394.963253498    393.320977637    399.652911843    398.940582269    
398.172630807    397.307974739    396.299055809    395.088201084    399.787982592    
399.352800861    398.883449762    398.354637069    397.736989842    396.994727413    
399.928692025    399.782316709    399.624414876    399.446444834    399.238469876    
398.98835665    398.971308867    396.862656198    394.597524808    392.062540773    
389.130163419    385.651797562    399.048900409    397.098960525    395.00323284    
392.655797458    389.937008811    386.706668194    399.149964176    397.406867153    
395.532294016    393.430409097    390.99242828    388.090007498    399.272357412    
397.779916987    396.173857557    394.37107034    392.27672623    389.778128621    
399.41332827    398.209776333    396.913784997    395.457510035    393.763150937    
391.737596615    399.569524795    398.686250266    397.734622559    396.664329709    
395.4174269    393.924144481    399.737048937    399.19743957    398.615842481    
397.961286536    397.197988762    396.282671293    399.911562001    399.730063289    
399.534401135    399.314116505    399.057105103    398.74869266    398.798213199    
396.335253641    393.691169556    390.735169842    387.320860803    383.278900462    
398.888878222    396.611341266    394.165068686    391.427883406    388.262476268    
384.50910421    399.006964286    396.971065204    394.783010121    392.332270135    
389.494025695    386.122074965    399.149964176    397.406867153    395.532294016    
393.430409097    390.992428273    388.090007482    399.314659971    397.909002027    
396.396387345    394.69859436    392.726392358    390.373769622    399.497134249    
398.465556067    397.354897093    396.107157478    394.655891695    392.921681833    
399.692833598    399.062631585    398.383855319    397.620804678    396.732452891    
395.669545942    399.896691757    399.684723606    399.456370793    399.199577924    
398.900467918    398.542341745    398.756728399    396.208821365    393.473774992    
390.416518119    386.885974787    382.707569811    398.888878222    396.611341265    
394.165068687    391.427883407    388.262476259    384.509104185    399.048900408    
397.098960522    395.00323284    392.655797454    389.937008797    386.706668163    
399.233191074    397.660765298    395.969751578    394.073709846    391.874519278    
389.25640321    399.437365306    398.283421181    397.041803781    395.64842732    
394.030238695    392.100522668    399.656328652    398.951381349    398.19258528    
397.340497909    396.350018343    395.167375278    399.884414851    399.647307821    
399.392037561    399.105285574    398.771797759    398.373345088    398.655260491    
395.899871144    392.943586559    389.641796077    385.833404153    381.333313867    
398.798213193    396.335253622    393.691169534    390.735169812    387.320860766    
383.278900432    398.971308862    396.862656182    394.597524788    392.062540749    
389.130163388    385.651797529    399.170646531    397.47026542    395.642610358    
393.595169084    391.22336275    388.40450395    399.391481983    398.143655285    
396.801740221    395.297156193    393.552052859    391.474554313    399.62830546    
398.866013577    398.045935752    397.125866259    396.05774753    394.784615359    
399.87499058    399.618597376    399.342713459    399.033087865    398.673467384    
398.244541876    398.586517304    395.690622541    392.584712897    389.117905694    
385.12260597    375.924012656    380.407037519    378.408497657    374.747055034    
398.736791152    396.148270453    393.370413764    390.266768388    386.685050618    
382.449828728    381.449559415    377.354207636    398.918745719    396.702623901    
394.322939082    391.661419973    388.585409764    384.940989863    384.990360868    
380.544888701    399.128278377    397.341258876    395.421211053    393.271634596    
390.783767926    387.830545074    388.952766039    384.259261841    399.360401298    
398.049009326    396.639279944    395.059681402    393.229257677    391.052865023    
393.236684588    388.415245066    399.609323423    398.808206239    397.946695713    
396.980772307    395.860464975    394.526788583    397.72258107    392.907865958    
399.868606954    399.599156192    399.309335661    398.98428238    398.607096658    
398.157784233    397.611904552    398.551821716    395.585031746    392.403688424    
388.853804627    384.764596909    379.941059699    374.155917439    398.705791396    
396.053917781    393.208622283    390.03065052    386.364830191    382.032786388    
376.824744196    398.892217739    396.621873115    394.184441029    391.459227266    
388.311066825    384.583469419    380.09062238    399.106896211    397.276165187    
395.309543454    393.108558122    390.56239769    387.541881863    383.892197856    
399.344715971    398.00125432    396.557341946    394.939987678    393.06671389    
390.840799433    388.145400555    399.599744006    398.779039206    397.896644366    
396.907643114    395.7611271    394.397135966    392.742806834    399.865385439    
399.589347119    399.292501883    398.959684166    398.573677642    398.114157961    
397.556349962    
-0.425    -0.475    -0.475    -0.475    -0.375    
-0.425    -0.425    -0.325    -0.375    -0.375    
-0.275    -0.325    -0.325    -0.225    -0.275    
-0.275    -0.225    -0.225    -0.475    -0.475    
-0.425    -0.425    -0.375    -0.375    -0.325    
-0.325    -0.275    -0.275    -0.225    -0.225    
-0.475    -0.475    -0.425    -0.425    -0.375    
-0.375    -0.325    -0.325    -0.275    -0.275    
-0.225    -0.225    -0.475    -0.475    -0.425    
-0.425    -0.375    -0.375    -0.325    -0.325    
-0.275    -0.275    -0.225    -0.225    -0.475    
-0.475    -0.425    -0.425    -0.375    -0.375    
-0.325    -0.325    -0.275    -0.275    -0.225    
-0.225    -0.475    -0.475    -0.425    -0.425    
-0.375    -0.375    -0.325    -0.325    -0.275    
-0.275    -0.225    -0.225    -0.475    -0.475    
-0.425    -0.425    -0.375    -0.375    -0.325    
-0.325    -0.275    -0.275    -0.225    -0.225    
-0.475    -0.475    -0.425    -0.425    -0.375    
-0.375    -0.325    -0.325    -0.275    -0.275    
-0.225    -0.225    -0.475    -0.425    -0.375    
-0.325    -0.275    -0.225    -0.475    -0.425    
-0.375    -0.325    -0.275    -0.225    -0.475    
-0.425    -0.375    -0.325    -0.275    -0.225    
-0.475    -0.425    -0.375    -0.325    -0.275    
-0.225    -0.475    -0.425    -0.375    -0.325    
-0.275    -0.225    -0.475    -0.425    -0.375    
-0.325    -0.275    -0.225    -0.475    -0.425    
-0.375    -0.325    -0.275    -0.225    -0.475    
-0.425    -0.375    -0.325    -0.275    -0.225    
-0.475    -0.425    -0.375    -0.325    -0.275    
-0.225    -0.475    -0.425    -0.375    -0.325    
-0.275    -0.225    -0.475    -0.425    -0.375    
-0.325    -0.275    -0.225    -0.475    -0.425    
-0.375    -0.325    -0.275    -0.225    -0.475    
-0.425    -0.375    -0.325    -0.275    -0.225    
-0.475    -0.425    -0.375    -0.325    -0.275    
-0.225    -0.475    -0.425    -0.375    -0.325    
-0.275    -0.225    -0.475    -0.425    -0.375    
-0.325    -0.275    -0.225    -0.475    -0.425    
-0.375    -0.325    -0.275    -0.225    -0.475    
-0.425    -0.375    -0.325    -0.275    -0.225    
-0.475    -0.425    -0.375    -0.325    -0.275    
-0.225    -0.475    -0.425    -0.375    -0.325    
-0.275    -0.225    -0.475    -0.425    -0.375    
-0.325    -0.275    -0.225    -0.475    -0.425    
-0.375    -0.325    -0.275    -0.225    -0.475    
-0.425    -0.375    -0.325    -0.275    -0.225    
-0.475    -0.425    -0.375    -0.325    -0.275    
-0.225    -0.475    -0.425    -0.375    -0.325    
-0.275    -0.225    -0.475    -0.425    -0.375    