Title = " tecplot file for 2D Cavity problem " 
variables = "x", "y", "z", "velX", "cellCentroidY" 
Zone T = "nmesh0" N = 781 E = 496 DATAPACKING = BLOCK, VARLOCATION = ([4-5]=CELLCENTERED),  ZONETYPE=FEBRICK 
-0.1    -0.1    -0.1    -0.1    -0.1    
-0.1    -0.1    -0.1    -0.15    -0.15    
-0.15    -0.15    -0.15    -0.15    -0.15    
-0.15    -0.15    -0.15    -0.15    -0.15    
-0.15    -0.15    -0.15    -0.15    -0.15    
-0.15    -0.15    -0.15    -0.15    -0.15    
-0.15    -0.15    -0.15    -0.15    -0.15    
-0.15    -0.15    -0.15    -0.15    -0.15    
-0.15    -0.15    -0.15    -0.15    -0.15    
-0.15    -0.15    -0.15    -0.15    -0.15    
-0.15    -0.15    -0.15    -0.15    -0.15    
-0.2    -0.2    -0.2    -0.2    -0.2    
-0.2    -0.2    -0.2    -0.2    -0.2    
-0.2    -0.2    -0.2    -0.2    -0.2    
-0.2    -0.2    -0.2    -0.2    -0.2    
-0.2    -0.2    -0.2    -0.2    -0.2    
-0.2    -0.2    -0.2    -0.2    -0.2    
-0.2    -0.2    -0.2    -0.2    -0.2    
-0.2    -0.2    -0.2    -0.2    -0.2    
-0.2    -0.2    -0.2    -0.2    -0.2    
-0.2    -0.2    -0.2    -0.2    -0.2    
-0.2    -0.2    -0.2    -0.2    -0.2    
-0.2    -0.2    -0.2    -0.2    -0.2    
-0.2    -0.2    -0.2    -0.2    -0.2    
-0.2    -0.2    -0.2    -0.2    -0.2    
-0.2    -0.2    -0.2    -0.2    -0.2    
-0.2    -0.2    -0.2    -0.2    -0.2    
-0.2    -0.2    -0.2    -0.2    -0.2    
-0.2    -0.2    -0.25    -0.25    -0.25    
-0.25    -0.25    -0.25    -0.25    -0.25    
-0.25    -0.25    -0.25    -0.25    -0.25    
-0.25    -0.25    -0.25    -0.25    -0.25    
-0.25    -0.25    -0.25    -0.25    -0.25    
-0.25    -0.25    -0.25    -0.25    -0.25    
-0.25    -0.25    -0.25    -0.25    -0.25    
-0.25    -0.25    -0.25    -0.25    -0.25    
-0.25    -0.25    -0.25    -0.25    -0.25    
-0.25    -0.25    -0.25    -0.25    -0.25    
-0.25    -0.25    -0.25    -0.25    -0.25    
-0.25    -0.25    -0.25    -0.25    -0.25    
-0.25    -0.25    -0.25    -0.25    -0.25    
-0.25    -0.25    -0.25    -0.25    -0.25    
-0.25    -0.25    -0.25    -0.25    -0.25    
-0.25    -0.25    -0.25    -0.25    -0.25    
-0.25    -0.25    -0.25    -0.25    -0.25    
-0.25    -0.25    -0.25    -0.25    -0.25    
-0.25    -0.25    -0.25    -0.25    -0.25    
-0.25    -0.25    -0.25    -0.25    -0.25    
-0.25    -0.25    -0.3    -0.3    -0.3    
-0.3    -0.3    -0.3    -0.3    -0.3    
-0.3    -0.3    -0.3    -0.3    -0.3    
-0.3    -0.3    -0.3    -0.3    -0.3    
-0.3    -0.3    -0.3    -0.3    -0.3    
-0.3    -0.3    -0.3    -0.3    -0.3    
-0.3    -0.3    -0.3    -0.3    -0.3    
-0.3    -0.3    -0.3    -0.3    -0.3    
-0.3    -0.3    -0.3    -0.3    -0.3    
-0.3    -0.3    -0.3    -0.3    -0.3    
-0.3    -0.3    -0.3    -0.3    -0.3    
-0.3    -0.3    -0.3    -0.3    -0.3    
-0.3    -0.3    -0.3    -0.3    -0.3    
-0.3    -0.3    -0.3    -0.3    -0.3    
-0.3    -0.3    -0.3    -0.3    -0.3    
-0.3    -0.3    -0.3    -0.3    -0.3    
-0.3    -0.3    -0.3    -0.3    -0.3    
-0.3    -0.3    -0.3    -0.3    -0.3    
-0.3    -0.3    -0.3    -0.3    -0.3    
-0.3    -0.3    -0.3    -0.3    -0.3    
-0.3    -0.3    -0.3    -0.3    -0.3    
-0.3    -0.3    -0.3    -0.3    -0.3    
-0.35    -0.35    -0.35    -0.35    -0.35    
-0.35    -0.35    -0.35    -0.35    -0.35    
-0.35    -0.35    -0.35    -0.35    -0.35    
-0.35    -0.35    -0.35    -0.35    -0.35    
-0.35    -0.35    -0.35    -0.35    -0.35    
-0.35    -0.35    -0.35    -0.35    -0.35    
-0.35    -0.35    -0.35    -0.35    -0.35    
-0.35    -0.35    -0.35    -0.35    -0.35    
-0.35    -0.35    -0.35    -0.35    -0.35    
-0.35    -0.35    -0.35    -0.35    -0.35    
-0.35    -0.35    -0.35    -0.35    -0.35    
-0.35    -0.35    -0.35    -0.35    -0.35    
-0.35    -0.35    -0.35    -0.35    -0.35    
-0.35    -0.35    -0.35    -0.35    -0.35    
-0.35    -0.35    -0.35    -0.35    -0.35    
-0.35    -0.35    -0.35    -0.35    -0.35    
-0.35    -0.35    -0.35    -0.35    -0.35    
-0.35    -0.35    -0.35    -0.35    -0.35    
-0.35    -0.35    -0.35    -0.35    -0.35    
-0.35    -0.35    -0.35    -0.35    -0.35    
-0.35    -0.35    -0.35    -0.35    -0.35    
-0.35    -0.35    -0.35    -0.35    -0.4    
-0.4    -0.4    -0.4    -0.4    -0.4    
-0.4    -0.4    -0.4    -0.4    -0.4    
-0.4    -0.4    -0.4    -0.4    -0.4    
-0.4    -0.4    -0.4    -0.4    -0.4    
-0.4    -0.4    -0.4    -0.4    -0.4    
-0.4    -0.4    -0.4    -0.4    -0.4    
-0.4    -0.4    -0.4    -0.4    -0.4    
-0.4    -0.4    -0.4    -0.4    -0.4    
-0.4    -0.4    -0.4    -0.4    -0.4    
-0.4    -0.4    -0.4    -0.4    -0.4    
-0.4    -0.4    -0.4    -0.4    -0.4    
-0.4    -0.4    -0.4    -0.4    -0.4    
-0.4    -0.4    -0.4    -0.4    -0.4    
-0.4    -0.4    -0.4    -0.4    -0.4    
-0.4    -0.4    -0.4    -0.4    -0.4    
-0.4    -0.4    -0.4    -0.4    -0.4    
-0.4    -0.4    -0.4    -0.4    -0.4    
-0.4    -0.4    -0.4    -0.4    -0.4    
-0.4    -0.4    -0.4    -0.4    -0.4    
-0.4    -0.4    -0.4    -0.4    -0.4    
-0.4    -0.4    -0.4    -0.45    -0.45    
-0.45    -0.45    -0.45    -0.45    -0.45    
-0.45    -0.45    -0.45    -0.45    -0.45    
-0.45    -0.45    -0.45    -0.45    -0.45    
-0.45    -0.45    -0.45    -0.45    -0.45    
-0.45    -0.45    -0.45    -0.45    -0.45    
-0.45    -0.45    -0.45    -0.45    -0.45    
-0.45    -0.45    -0.45    -0.45    -0.45    
-0.45    -0.45    -0.45    -0.45    -0.45    
-0.45    -0.45    -0.45    -0.45    -0.45    
-0.45    -0.45    -0.45    -0.45    -0.45    
-0.45    -0.45    -0.45    -0.45    -0.45    
-0.45    -0.45    -0.45    -0.45    -0.45    
-0.45    -0.45    -0.45    -0.45    -0.45    
-0.45    -0.45    -0.45    -0.45    -0.45    
-0.45    -0.45    -0.45    -0.45    -0.45    
-0.45    -0.45    -0.45    -0.45    -0.45    
-0.45    -0.45    -0.45    -0.45    -0.45    
-0.45    -0.45    -0.45    -0.45    -0.45    
-0.45    -0.45    -0.45    -0.45    -0.45    
-0.45    -0.45    -0.45    -0.45    -0.45    
-0.45    -0.45    -0.45    -0.45    -0.45    
-0.45    -0.45    -0.45    -0.5    -0.5    
-0.5    -0.5    -0.5    -0.5    -0.5    
-0.5    -0.5    -0.5    -0.5    -0.5    
-0.5    -0.5    -0.5    -0.5    -0.5    
-0.5    -0.5    -0.5    -0.5    -0.5    
-0.5    -0.5    -0.5    -0.5    -0.5    
-0.5    -0.5    -0.5    -0.5    -0.5    
-0.5    -0.5    -0.5    -0.5    -0.5    
-0.5    -0.5    -0.5    -0.5    -0.5    
-0.5    -0.5    -0.5    -0.5    -0.5    
-0.5    -0.5    -0.5    -0.5    -0.5    
-0.5    -0.5    -0.5    -0.5    -0.5    
-0.5    -0.5    -0.5    -0.5    -0.5    
-0.5    -0.5    -0.5    -0.5    -0.5    
-0.5    -0.5    -0.5    -0.5    -0.5    
-0.5    -0.5    -0.5    -0.5    -0.5    
-0.5    -0.5    -0.5    -0.5    -0.5    
-0.5    -0.5    -0.5    -0.5    -0.5    
-0.5    -0.5    -0.5    -0.5    -0.5    
-0.5    -0.5    -0.5    -0.5    -0.5    
-0.5    -0.5    -0.5    -0.5    -0.5    
-0.5    -0.5    -0.5    -0.5    -0.5    
-0.5    
0.35    0.4    0.4    0.35    0.1    
0.15    0.15    0.1    0.4    0.35    
0.35    0.4    0.45    0.45    0.5    
0.5    0.4    0.45    0.5    0.45    
0.5    0.45    0.5    0.25    0.3    
0.3    0.25    0.35    0.35    0.45    
0.5    0.1    0.15    0.15    0.1    
0.3    0.35    0.35    0.3    0.4    
0.4    0.15    0.1    0.35    0.4    
0.1    0.15    0.1    0.15    0.3    
0.35    0.35    0.3    0.4    0.4    
0.4    0.35    0.45    0.5    0.35    
0.4    0.45    0.5    0.4    0.35    
0.45    0.5    0.35    0.4    0.45    
0.5    0.2    0.25    0.25    0.2    
0.3    0.3    0.35    0.45    0.4    
0.5    0.25    0.3    0.35    0.45    
0.4    0.5    0.15    0.1    0.2    
0.25    0.2    0.3    0.35    0.4    
0.45    0.5    0.1    0.15    0.2    
0.25    0.3    0.35    0.4    0.45    
0.5    0.1    0.15    0.2    0.25    
0.3    0.35    0.4    0.45    0.5    
0.1    0.15    0.2    0.25    0.3    
0.35    0.4    0.45    0.5    0.1    
0.15    0.2    0.25    0.3    0.35    
0.4    0.45    0.5    0.1    0.15    
0.2    0.25    0.3    0.35    0.4    
0.45    0.5    0.4    0.35    0.45    
0.5    0.2    0.25    0.25    0.2    
0.35    0.4    0.45    0.5    0.15    
0.2    0.15    0.25    0.35    0.4    
0.45    0.5    0.25    0.2    0.3    
0.3    0.35    0.4    0.45    0.5    
0.2    0.25    0.3    0.35    0.4    
0.45    0.5    0.1    0.15    0.15    
0.1    0.2    0.25    0.3    0.35    
0.4    0.45    0.5    0.15    0.1    
0.2    0.25    0.3    0.35    0.4    
0.45    0.5    0.1    0.15    0.2    
0.25    0.3    0.35    0.4    0.45    
0.5    0.1    0.15    0.2    0.25    
0.3    0.35    0.4    0.45    0.5    
0.1    0.15    0.2    0.25    0.3    
0.35    0.4    0.45    0.5    0.1    
0.15    0.2    0.25    0.3    0.35    
0.4    0.45    0.5    0.1    0.15    
0.2    0.25    0.3    0.35    0.4    
0.45    0.5    0.25    0.2    0.3    
0.3    0.25    0.35    0.35    0.4    
0.45    0.5    0.2    0.15    0.25    
0.3    0.35    0.4    0.45    0.5    
0.15    0.2    0.25    0.3    0.35    
0.4    0.45    0.5    0.1    0.15    
0.1    0.2    0.25    0.3    0.35    
0.4    0.45    0.5    0.15    0.1    
0.2    0.25    0.3    0.35    0.4    
0.45    0.5    0.1    0.15    0.2    
0.25    0.3    0.35    0.4    0.45    
0.5    0.1    0.15    0.2    0.25    
0.3    0.35    0.4    0.45    0.5    
0.1    0.15    0.2    0.25    0.3    
0.35    0.4    0.45    0.5    0.1    
0.15    0.2    0.25    0.3    0.35    
0.4    0.45    0.5    0.1    0.15    
0.2    0.25    0.3    0.35    0.4    
0.45    0.5    0.1    0.15    0.2    
0.25    0.3    0.35    0.4    0.45    
0.5    0.1    0.15    0.2    0.25    
0.3    0.35    0.4    0.45    0.5    
0.3    0.25    0.35    0.25    0.2    
0.3    0.35    0.4    0.45    0.5    
0.1    0.15    0.15    0.1    0.2    
0.25    0.3    0.35    0.4    0.45    
0.5    0.15    0.1    0.2    0.25    
0.3    0.35    0.4    0.45    0.5    
0.1    0.15    0.2    0.25    0.3    
0.35    0.4    0.45    0.5    0.15    
0.1    0.2    0.25    0.3    0.35    
0.4    0.45    0.5    0.1    0.15    
0.2    0.25    0.3    0.35    0.4    
0.45    0.5    0.1    0.15    0.2    
0.25    0.3    0.35    0.4    0.45    
0.5    0.1    0.15    0.2    0.25    
0.3    0.35    0.4    0.45    0.5    
0.1    0.15    0.2    0.25    0.3    
0.35    0.4    0.45    0.5    0.1    
0.15    0.2    0.25    0.3    0.35    
0.4    0.45    0.5    0.15    0.2    
0.25    0.3    0.35    0.4    0.45    
0.5    0.15    0.2    0.25    0.3    
0.35    0.4    0.45    0.5    0.35    
0.3    0.15    0.1    0.2    0.25    
0.3    0.35    0.1    0.15    0.2    
0.25    0.3    0.35    0.4    0.45    
0.5    0.1    0.15    0.2    0.25    
0.3    0.35    0.4    0.45    0.5    
0.1    0.15    0.2    0.25    0.3    
0.35    0.4    0.45    0.5    0.1    
0.15    0.2    0.25    0.3    0.35    
0.4    0.45    0.5    0.1    0.15    
0.2    0.25    0.3    0.35    0.4    
0.45    0.5    0.1    0.15    0.2    
0.25    0.3    0.35    0.4    0.45    
0.5    0.1    0.15    0.2    0.25    
0.3    0.35    0.4    0.45    0.5    
0.15    0.1    0.2    0.25    0.3    
0.35    0.4    0.45    0.5    0.15    
0.2    0.25    0.3    0.35    0.4    
0.45    0.5    0.15    0.2    0.25    
0.3    0.35    0.4    0.45    0.5    
0.15    0.2    0.25    0.3    0.35    
0.4    0.45    0.5    0.35    0.3    
0.15    0.1    0.2    0.25    0.3    
0.35    0.1    0.15    0.2    0.25    
0.3    0.35    0.4    0.4    0.45    
0.45    0.5    0.1    0.15    0.2    
0.25    0.3    0.35    0.4    0.45    
0.5    0.1    0.05    0.05    0.15    
0.2    0.25    0.3    0.35    0.4    
0.45    0.5    0.1    0.15    0.2    
0.25    0.3    0.35    0.4    0.45    
0.5    0.1    0.15    0.2    0.25    
0.3    0.35    0.4    0.45    0.5    
0.1    0.15    0.2    0.25    0.3    
0.35    0.4    0.45    0.5    0.1    
0.15    0.2    0.25    0.3    0.35    
0.4    0.45    0.5    0.1    0.15    
0.2    0.25    0.3    0.35    0.4    
0.45    0.5    0.15    0.1    0.2    
0.25    0.3    0.35    0.4    0.45    
0.5    0.15    0.1    0.2    0.25    
0.3    0.35    0.4    0.45    0.5    
0.15    0.2    0.25    0.3    0.35    
0.4    0.45    0.5    0.15    0.1    
0.2    0.25    0.3    0.35    0.4    
0.45    0.1    0.15    0.2    0.25    
0.3    0.35    0.4    0.45    0.5    
0.1    0.05    0.15    0.2    0.25    
0.3    0.35    0.4    0.45    0.5    
0.05    0.1    0.15    0.2    0.25    
0.3    0.35    0.4    0.45    0.5    
0.1    0.15    0.2    0.25    0.3    
0.35    0.4    0.45    0.5    0.1    
0.15    0.2    0.25    0.3    0.35    
0.4    0.45    0.5    0.1    0.15    
0.2    0.25    0.3    0.35    0.4    
0.45    0.5    0.1    0.15    0.2    
0.25    0.3    0.35    0.4    0.45    
0.5    0.1    0.15    0.2    0.25    
0.3    0.35    0.4    0.45    0.5    
0.1    0.15    0.2    0.25    0.3    
0.35    0.4    0.45    0.5    0.1    
0.15    0.2    0.25    0.3    0.35    
0.4    0.45    0.5    0.15    0.2    
0.25    0.3    0.35    0.4    0.45    
0.5    
0.0    0.0    0.05    0.05    -0.4    
-0.4    -0.35    -0.35    0.05    0.05    
0.0    0.0    0.0    0.05    0.0    
0.05    -0.05    -0.05    -0.05    -0.1    
-0.1    -0.15    -0.15    -0.2    -0.2    
-0.15    -0.15    -0.2    -0.15    -0.2    
-0.2    -0.3    -0.3    -0.25    -0.25    
-0.3    -0.3    -0.25    -0.25    -0.3    
-0.25    -0.35    -0.35    -0.35    -0.35    
-0.4    -0.4    -0.45    -0.45    -0.5    
-0.5    -0.45    -0.45    -0.5    -0.45    
0.05    0.05    0.05    0.05    0.0    
0.0    0.0    0.0    -0.05    -0.05    
-0.05    -0.05    -0.1    -0.1    -0.1    
-0.1    -0.15    -0.15    -0.1    -0.1    
-0.15    -0.1    -0.15    -0.15    -0.15    
-0.15    -0.2    -0.2    -0.2    -0.2    
-0.2    -0.2    -0.25    -0.25    -0.25    
-0.25    -0.2    -0.25    -0.25    -0.25    
-0.25    -0.25    -0.3    -0.3    -0.3    
-0.3    -0.3    -0.3    -0.3    -0.3    
-0.3    -0.35    -0.35    -0.35    -0.35    
-0.35    -0.35    -0.35    -0.35    -0.35    
-0.4    -0.4    -0.4    -0.4    -0.4    
-0.4    -0.4    -0.4    -0.4    -0.45    
-0.45    -0.45    -0.45    -0.45    -0.45    
-0.45    -0.45    -0.45    -0.5    -0.5    
-0.5    -0.5    -0.5    -0.5    -0.5    
-0.5    -0.5    0.05    0.05    0.05    
0.05    0.0    0.0    0.05    0.05    
0.0    0.0    0.0    0.0    -0.05    
-0.05    0.0    -0.05    -0.05    -0.05    
-0.05    -0.05    -0.1    -0.1    -0.1    
-0.05    -0.1    -0.1    -0.1    -0.1    
-0.15    -0.15    -0.15    -0.15    -0.15    
-0.15    -0.15    -0.2    -0.2    -0.15    
-0.15    -0.2    -0.2    -0.2    -0.2    
-0.2    -0.2    -0.2    -0.25    -0.25    
-0.25    -0.25    -0.25    -0.25    -0.25    
-0.25    -0.25    -0.3    -0.3    -0.3    
-0.3    -0.3    -0.3    -0.3    -0.3    
-0.3    -0.35    -0.35    -0.35    -0.35    
-0.35    -0.35    -0.35    -0.35    -0.35    
-0.4    -0.4    -0.4    -0.4    -0.4    
-0.4    -0.4    -0.4    -0.4    -0.45    
-0.45    -0.45    -0.45    -0.45    -0.45    
-0.45    -0.45    -0.45    -0.5    -0.5    
-0.5    -0.5    -0.5    -0.5    -0.5    
-0.5    -0.5    0.05    0.05    0.05    
0.1    0.1    0.05    0.1    0.05    
0.05    0.05    0.0    0.0    0.0    
0.0    0.0    0.0    0.0    0.0    
-0.05    -0.05    -0.05    -0.05    -0.05    
-0.05    -0.05    -0.05    -0.1    -0.1    
-0.05    -0.1    -0.1    -0.1    -0.1    
-0.1    -0.1    -0.1    -0.15    -0.15    
-0.15    -0.15    -0.15    -0.15    -0.15    
-0.15    -0.15    -0.2    -0.2    -0.2    
-0.2    -0.2    -0.2    -0.2    -0.2    
-0.2    -0.25    -0.25    -0.25    -0.25    
-0.25    -0.25    -0.25    -0.25    -0.25    
-0.3    -0.3    -0.3    -0.3    -0.3    
-0.3    -0.3    -0.3    -0.3    -0.35    
-0.35    -0.35    -0.35    -0.35    -0.35    
-0.35    -0.35    -0.35    -0.4    -0.4    
-0.4    -0.4    -0.4    -0.4    -0.4    
-0.4    -0.4    -0.45    -0.45    -0.45    
-0.45    -0.45    -0.45    -0.45    -0.45    
-0.45    -0.5    -0.5    -0.5    -0.5    
-0.5    -0.5    -0.5    -0.5    -0.5    
0.1    0.1    0.1    0.05    0.05    
0.05    0.05    0.05    0.05    0.05    
0.0    0.0    0.05    0.05    0.0    
0.0    0.0    0.0    0.0    0.0    
0.0    -0.05    -0.05    -0.05    -0.05    
-0.05    -0.05    -0.05    -0.05    -0.05    
-0.1    -0.1    -0.1    -0.1    -0.1    
-0.1    -0.1    -0.1    -0.1    -0.15    
-0.15    -0.15    -0.15    -0.15    -0.15    
-0.15    -0.15    -0.15    -0.2    -0.2    
-0.2    -0.2    -0.2    -0.2    -0.2    
-0.2    -0.2    -0.25    -0.25    -0.25    
-0.25    -0.25    -0.25    -0.25    -0.25    
-0.25    -0.3    -0.3    -0.3    -0.3    
-0.3    -0.3    -0.3    -0.3    -0.3    
-0.35    -0.35    -0.35    -0.35    -0.35    
-0.35    -0.35    -0.35    -0.35    -0.4    
-0.4    -0.4    -0.4    -0.4    -0.4    
-0.4    -0.4    -0.4    -0.45    -0.45    
-0.45    -0.45    -0.45    -0.45    -0.45    
-0.45    -0.5    -0.5    -0.5    -0.5    
-0.5    -0.5    -0.5    -0.5    0.1    
0.1    0.05    0.05    0.05    0.05    
0.05    0.05    0.0    0.0    0.0    
0.0    0.0    0.0    0.0    0.0    
0.0    -0.05    -0.05    -0.05    -0.05    
-0.05    -0.05    -0.05    -0.05    -0.05    
-0.1    -0.1    -0.1    -0.1    -0.1    
-0.1    -0.1    -0.1    -0.1    -0.15    
-0.15    -0.15    -0.15    -0.15    -0.15    
-0.15    -0.15    -0.15    -0.2    -0.2    
-0.2    -0.2    -0.2    -0.2    -0.2    
-0.2    -0.2    -0.25    -0.25    -0.25    
-0.25    -0.25    -0.25    -0.25    -0.25    
-0.25    -0.3    -0.3    -0.3    -0.3    
-0.3    -0.3    -0.3    -0.3    -0.3    
-0.35    -0.35    -0.35    -0.35    -0.35    
-0.35    -0.35    -0.35    -0.35    -0.4    
-0.4    -0.4    -0.4    -0.4    -0.4    
-0.4    -0.4    -0.45    -0.45    -0.45    
-0.45    -0.45    -0.45    -0.45    -0.45    
-0.5    -0.5    -0.5    -0.5    -0.5    
-0.5    -0.5    -0.5    0.1    0.1    
0.05    0.05    0.05    0.05    0.05    
0.05    0.0    0.0    0.0    0.0    
0.0    0.0    0.0    0.05    0.0    
0.05    0.0    -0.05    -0.05    -0.05    
-0.05    -0.05    -0.05    -0.05    -0.05    
-0.05    -0.1    -0.1    -0.05    -0.1    
-0.1    -0.1    -0.1    -0.1    -0.1    
-0.1    -0.1    -0.15    -0.15    -0.15    
-0.15    -0.15    -0.15    -0.15    -0.15    
-0.15    -0.2    -0.2    -0.2    -0.2    
-0.2    -0.2    -0.2    -0.2    -0.2    
-0.25    -0.25    -0.25    -0.25    -0.25    
-0.25    -0.25    -0.25    -0.25    -0.3    
-0.3    -0.3    -0.3    -0.3    -0.3    
-0.3    -0.3    -0.3    -0.35    -0.35    
-0.35    -0.35    -0.35    -0.35    -0.35    
-0.35    -0.35    -0.4    -0.4    -0.4    
-0.4    -0.4    -0.4    -0.4    -0.4    
-0.4    -0.45    -0.45    -0.45    -0.45    
-0.45    -0.45    -0.45    -0.45    -0.45    
-0.5    -0.5    -0.5    -0.5    -0.5    
-0.5    -0.5    -0.5    0.05    0.05    
0.05    0.05    0.05    0.05    0.05    
0.05    0.0    0.0    0.0    0.0    
0.0    0.0    0.0    0.0    0.0    
-0.05    -0.05    -0.05    -0.05    -0.05    
-0.05    -0.05    -0.05    -0.05    -0.05    
-0.1    -0.1    -0.1    -0.1    -0.1    
-0.1    -0.1    -0.1    -0.1    -0.1    
-0.15    -0.15    -0.15    -0.15    -0.15    
-0.15    -0.15    -0.15    -0.15    -0.2    
-0.2    -0.2    -0.2    -0.2    -0.2    
-0.2    -0.2    -0.2    -0.25    -0.25    
-0.25    -0.25    -0.25    -0.25    -0.25    
-0.25    -0.25    -0.3    -0.3    -0.3    
-0.3    -0.3    -0.3    -0.3    -0.3    
-0.3    -0.35    -0.35    -0.35    -0.35    
-0.35    -0.35    -0.35    -0.35    -0.35    
-0.4    -0.4    -0.4    -0.4    -0.4    
-0.4    -0.4    -0.4    -0.4    -0.45    
-0.45    -0.45    -0.45    -0.45    -0.45    
-0.45    -0.45    -0.45    -0.5    -0.5    
-0.5    -0.5    -0.5    -0.5    -0.5    
-0.5    
131.32761646    124.978535085    355.461359466    352.842165379    81.2680030791    
141.227436195    27.5416716204    81.2680030805    88.2098678257    27.5416716174    
30.0753530611    88.2098678308    27.9122724882    30.0753530641    28.7212768302    
30.4155147634    30.1302729316    31.160755355    188.958707745    228.791096154    
239.157677163    199.225613897    32.4667378819    340.765367455    328.465688842    
334.460825686    165.07121397    214.390059827    222.830379878    186.73863399    
172.585801677    345.681888987    193.087698185    372.27213615    359.123622749    
374.53466609    350.693457678    368.054745567    369.21505395    351.752934027    
141.227436205    156.34932824    99.3033399595    34.2850641816    142.674847491    
156.349328254    89.175206902    99.3033399769    34.2850641901    157.621469773    
91.2766835829    100.153556329    34.5850155388    232.750902705    265.469864976    
279.587017923    248.225694574    94.9135973868    102.011918945    35.2450744392    
248.692041299    253.859540165    208.715356403    214.390059759    100.861670259    
105.250597694    34.6517814463    36.4107580747    280.544587633    292.816954    
292.816953966    262.288474706    262.288474693    159.488109636    222.830379874    
172.585801672    110.60146784    110.601467838    38.3836620529    38.3836620533    
316.328585411    342.310145269    329.970069447    325.670055042    309.102413195    
303.660057126    281.141994776    274.389938158    243.507484551    235.495102189    
184.435940616    127.04489181    119.482183548    45.2148436174    41.8067833962    
352.137111417    346.777104394    337.696478597    329.942755494    318.133220835    
306.532107089    291.303760143    273.31686015    254.241987314    225.415999821    
203.233377308    156.146990388    134.723720803    59.3471289465    48.1989880609    
363.944734978    366.561066364    352.578831478    355.414084651    336.769756463    
339.294171427    314.277672131    314.941973191    281.579663976    276.086198665    
233.313150836    210.248661253    162.194263371    94.3083287311    61.7224035959    
391.341096575    377.519346363    388.570771698    370.168329162    384.62828483    
359.682366652    378.734741234    344.170959844    320.190450435    281.156257793    
312.765253659    214.178638792    201.222730747    95.8716656621    392.352248673    
389.795814532    386.082471044    380.403324118    371.020983641    353.510574241    
314.140969494    201.776918818    274.608973721    274.608973692    294.074178005    
179.467809927    117.518883312    41.7466765562    299.839242995    316.421077287    
276.223066275    294.074178021    179.467809968    117.51888334    41.7466765691    
244.77890444    295.398662056    205.657860182    266.606286038    208.927623714    
229.170180597    160.372176485    180.521050012    118.224386863    41.9958990518    
284.977605902    298.164146368    269.450178668    231.878082767    165.071213904    
182.807173928    119.773425175    42.5470731668    309.36576991    328.465688767    
334.460825673    340.765367385    316.328585377    324.23394612    302.609484608    
274.11772897    236.425987052    186.738633973    122.494630044    43.5292344585    
345.681889    329.970069432    309.102413178    281.14199477    243.50748456    
193.087698194    127.044891817    45.2148436198    352.137111423    337.6964786    
318.133220837    291.303760148    254.24198732    203.233377312    134.723720806    
48.1989880621    360.244513313    347.689583436    330.266859533    305.637747686    
270.332535737    219.597766097    148.188620725    53.925165016    370.018199655    
360.116585307    346.003692206    325.309785281    294.137863006    246.299342747    
173.080675814    66.4447791317    374.87254961    365.488598755    351.17777431    
328.272864167    289.658533793    221.460015177    99.1153696993    391.396881154    
388.067507179    382.814113068    373.827482743    356.502874729    316.755400952    
202.979984639    229.170180534    266.606285998    265.260834094    227.905959867    
262.451844669    318.6813431    265.260834131    294.573488339    227.905959902    
261.504389407    317.655923446    336.666630609    318.681343112    294.573488374    
261.504389453    215.043828411    148.852203369    56.680212847    334.976180334    
351.160720156    337.584447469    319.668372281    295.578956425    262.451844746    
215.835278943    149.383507265    56.8681412224    321.732830379    297.709133348    
264.487352666    217.559675166    150.555368102    57.2858790421    355.461359455    
342.486280887    325.061067183    301.219188575    267.923932287    220.545100722    
152.630997144    58.0373363016    359.123622765    346.777104402    329.942755498    
306.532107096    273.31686016    225.415999833    156.146990397    59.3471289506    
363.944734982    352.578831482    336.769756469    314.277672137    281.579663985    
233.313150843    162.194263376    61.7224035981    360.116585304    346.003692205    
325.309785282    294.137863009    246.29934275    173.080675816    66.4447791326    
369.536655479    358.070567897    340.623962347    313.032986123    268.008066939    
193.897033731    77.2698397952    380.776360928    373.12770257    361.010324744    
340.645080718    304.259848137    235.97147201    107.051143284    393.411343724    
390.690486233    386.222703124    378.181543593    361.768131371    322.203962622    
206.192187644    308.134910343    336.666630618    350.340050553    350.340050493    
369.115609999    360.306234726    348.424046311    331.841918818    307.546825869    
369.115609976    360.306234725    348.424046321    331.841918841    307.546825899    
269.559460405    205.634585028    92.6142559406    352.842165269    369.620824194    
339.48276597    360.872272452    349.03399427    332.464613769    308.134910394    
270.051768056    205.965665093    92.7314903509    370.656676091    362.044167228    
350.311497146    333.78629337    309.401447679    271.12777663    206.698724815    
92.9932345006    372.27213617    363.901442239    352.375863169    335.97116257    
311.54910454    273.001365924    208.006557293    93.4681145144    374.534666116    
366.561066382    355.414084664    339.294171438    314.941973202    276.086198676    
210.248661261    94.3083287343    377.519346376    370.168329173    359.68236666    
344.170959852    320.190450443    281.1562578    214.178638797    95.8716656643    
374.872549614    365.488598759    351.177774314    328.272864171    289.658533795    
221.460015179    99.1153697003    380.776360927    373.127702572    361.010324745    
340.645080719    304.259848138    235.97147201    107.051143285    387.850836635    
382.729876872    374.264725393    359.112917535    329.507803991    266.956829102    
130.809133841    395.83179004    394.004147029    390.862454227    384.807407195    
371.228690514    334.740546379    217.302410608    389.508743596    386.452614307    
382.256740688    376.200619873    366.693450434    389.508743588    386.452614307    
382.256740692    376.20061988    366.693450444    349.520294679    311.181340362    
200.639247428    389.679367975    386.643966843    382.463163655    376.411609318    
366.892962215    349.687516875    311.293915043    200.6791357    390.029338488    
387.040349519    382.895834462    376.859905707    367.323248472    350.053678132    
311.543747267    200.768432779    390.575488642    387.669139616    383.595925202    
377.602354327    368.054745568    350.693457679    311.991480096    200.931344767    
391.341096587    388.570771708    384.628284837    378.73474124    369.215053955    
351.752934031    312.765253662    201.222730748    381.288542378    392.35224868    
389.795814537    386.082471048    380.403324122    371.020983644    353.510574243    
314.140969497    201.776918819    393.63095304    391.396881157    388.067507181    
382.81411307    373.827482744    356.50287473    316.755400953    202.97998464    
393.411343725    390.690486234    386.222703125    378.181543594    361.768131372    
322.203962623    206.192187645    395.831790041    394.00414703    390.862454227    
384.807407194    371.228690515    334.740546379    217.302410609    398.568883728    
397.914421829    396.738196847    394.266244488    387.776944665    365.491931803    
266.677417002    349.520294671    311.181340356    391.952702734    395.183887723    
396.987319167    
0.375    0.375    0.125    0.125    0.425    
0.375    0.475    0.425    0.425    0.475    
0.475    0.425    0.475    0.475    0.475    
0.475    0.475    0.475    0.325    0.275    
0.275    0.325    0.475    0.125    0.125    
0.125    0.375    0.325    0.325    0.375    
0.375    0.125    0.375    0.125    0.125    
0.125    0.375    0.325    0.325    0.375    
0.375    0.375    0.425    0.475    0.375    
0.375    0.425    0.425    0.475    0.375    
0.425    0.425    0.475    0.275    0.225    
0.225    0.275    0.425    0.425    0.475    
0.275    0.275    0.325    0.325    0.425    
0.425    0.475    0.475    0.225    0.225    
0.225    0.275    0.275    0.375    0.325    
0.375    0.425    0.425    0.475    0.475    
0.175    0.125    0.175    0.175    0.225    
0.225    0.275    0.275    0.325    0.325    
0.375    0.425    0.425    0.475    0.475    
0.125    0.175    0.175    0.225    0.225    
0.275    0.275    0.325    0.325    0.375    
0.375    0.425    0.425    0.475    0.475    
0.125    0.175    0.175    0.225    0.225    
0.275    0.275    0.325    0.325    0.375    
0.375    0.425    0.425    0.475    0.475    
0.125    0.125    0.175    0.175    0.225    
0.225    0.275    0.275    0.325    0.375    
0.425    0.425    0.475    0.475    0.125    
0.175    0.225    0.275    0.325    0.375    
0.425    0.475    0.225    0.225    0.225    
0.375    0.425    0.475    0.175    0.175    
0.225    0.225    0.375    0.425    0.475    
0.275    0.225    0.325    0.275    0.325    
0.325    0.375    0.375    0.425    0.475    
0.225    0.225    0.275    0.325    0.375    
0.375    0.425    0.475    0.175    0.125    
0.125    0.125    0.175    0.175    0.225    
0.275    0.325    0.375    0.425    0.475    
0.125    0.175    0.225    0.275    0.325    
0.375    0.425    0.475    0.125    0.175    
0.225    0.275    0.325    0.375    0.425    