Title = " tecplot file for 2D Cavity problem " 
variables = "x", "y", "z", "velX", "cellCentroidY" 
Zone T = "nmesh0" N = 737 E = 500 DATAPACKING = BLOCK, VARLOCATION = ([4-5]=CELLCENTERED), ZONETYPE=FEBRICK
0.45    0.45    0.5    0.5    0.45    
0.5    0.45    0.5    0.45    0.5    
0.45    0.5    0.45    0.5    0.45    
0.5    0.45    0.5    0.45    0.5    
0.45    0.5    0.45    0.5    0.45    
0.5    0.45    0.5    0.45    0.5    
0.45    0.5    0.45    0.5    0.45    
0.5    0.45    0.5    0.45    0.5    
0.45    0.5    0.45    0.5    0.45    
0.5    0.45    0.5    0.45    0.5    
0.45    0.5    0.45    0.5    0.45    
0.5    0.45    0.5    0.45    0.5    
0.45    0.5    0.45    0.5    0.45    
0.5    0.45    0.5    0.45    0.5    
0.45    0.5    0.45    0.5    0.45    
0.5    0.45    0.5    0.45    0.5    
0.45    0.5    0.45    0.5    0.45    
0.5    0.45    0.5    0.45    0.5    
0.45    0.5    0.45    0.5    0.45    
0.5    0.45    0.5    0.45    0.5    
0.45    0.5    0.45    0.5    0.45    
0.5    0.45    0.5    0.4    0.4    
0.4    0.4    0.4    0.4    0.4    
0.4    0.4    0.4    0.4    0.4    
0.4    0.4    0.4    0.4    0.4    
0.4    0.4    0.4    0.4    0.4    
0.4    0.4    0.4    0.4    0.4    
0.4    0.4    0.4    0.4    0.4    
0.4    0.4    0.4    0.4    0.4    
0.4    0.4    0.4    0.4    0.4    
0.4    0.4    0.4    0.4    0.4    
0.4    0.4    0.4    0.4    0.4    
0.4    0.4    0.35    0.35    0.35    
0.35    0.35    0.35    0.35    0.35    
0.35    0.35    0.35    0.35    0.35    
0.35    0.35    0.35    0.35    0.35    
0.35    0.35    0.35    0.35    0.35    
0.35    0.35    0.35    0.35    0.35    
0.35    0.35    0.35    0.35    0.35    
0.35    0.35    0.35    0.35    0.35    
0.35    0.35    0.35    0.35    0.35    
0.35    0.35    0.35    0.35    0.35    
0.35    0.35    0.35    0.35    0.35    
0.35    0.3    0.3    0.3    0.3    
0.3    0.3    0.3    0.3    0.3    
0.3    0.3    0.3    0.3    0.3    
0.3    0.3    0.3    0.3    0.3    
0.3    0.3    0.3    0.3    0.3    
0.3    0.3    0.3    0.3    0.3    
0.3    0.3    0.3    0.3    0.3    
0.3    0.3    0.3    0.3    0.3    
0.3    0.3    0.3    0.3    0.3    
0.3    0.3    0.3    0.3    0.3    
0.3    0.3    0.3    0.3    0.3    
0.3    0.3    0.3    0.3    0.3    
0.3    0.3    0.3    0.3    0.3    
0.3    0.3    0.3    0.3    0.25    
0.25    0.25    0.25    0.25    0.25    
0.25    0.25    0.25    0.25    0.25    
0.25    0.25    0.25    0.25    0.25    
0.25    0.25    0.25    0.25    0.25    
0.25    0.25    0.25    0.25    0.25    
0.25    0.25    0.25    0.25    0.25    
0.25    0.25    0.25    0.25    0.25    
0.25    0.25    0.25    0.25    0.25    
0.25    0.25    0.25    0.25    0.25    
0.25    0.25    0.25    0.25    0.25    
0.25    0.25    0.25    0.25    0.25    
0.25    0.25    0.25    0.25    0.25    
0.25    0.25    0.25    0.25    0.25    
0.25    0.25    0.2    0.2    0.2    
0.2    0.2    0.2    0.2    0.2    
0.2    0.2    0.2    0.2    0.2    
0.2    0.2    0.2    0.2    0.2    
0.2    0.2    0.2    0.2    0.2    
0.2    0.2    0.2    0.2    0.2    
0.2    0.2    0.2    0.2    0.2    
0.2    0.2    0.2    0.2    0.2    
0.2    0.2    0.2    0.2    0.2    
0.2    0.2    0.2    0.2    0.2    
0.2    0.2    0.2    0.2    0.2    
0.2    0.2    0.2    0.2    0.2    
0.2    0.2    0.2    0.2    0.2    
0.2    0.2    0.2    0.2    0.2    
0.2    0.2    0.2    0.2    0.2    
0.2    0.2    0.2    0.2    0.15    
0.15    0.15    0.15    0.15    0.15    
0.15    0.15    0.15    0.15    0.15    
0.15    0.15    0.15    0.15    0.15    
0.15    0.15    0.15    0.15    0.15    
0.15    0.15    0.15    0.15    0.15    
0.15    0.15    0.15    0.15    0.15    
0.15    0.15    0.15    0.15    0.15    
0.15    0.15    0.15    0.15    0.15    
0.15    0.15    0.15    0.15    0.15    
0.15    0.15    0.15    0.15    0.15    
0.15    0.15    0.15    0.15    0.15    
0.15    0.15    0.15    0.15    0.15    
0.15    0.15    0.15    0.15    0.15    
0.15    0.15    0.15    0.15    0.15    
0.15    0.15    0.15    0.15    0.15    
0.15    0.1    0.1    0.1    0.1    
0.1    0.1    0.1    0.1    0.1    
0.1    0.1    0.1    0.1    0.1    
0.1    0.1    0.1    0.1    0.1    
0.1    0.1    0.1    0.1    0.1    
0.1    0.1    0.1    0.1    0.1    
0.1    0.1    0.1    0.1    0.1    
0.1    0.1    0.1    0.1    0.1    
0.1    0.1    0.1    0.1    0.1    
0.1    0.1    0.1    0.1    0.1    
0.1    0.1    0.1    0.1    0.1    
0.1    0.1    0.1    0.1    0.1    
0.1    0.1    0.1    0.1    0.1    
0.1    0.1    0.1    0.1    0.1    
0.1    0.1    0.1    0.1    0.1    
0.1    0.1    0.1    0.05    0.05    
0.05    0.05    0.05    0.05    0.05    
0.05    0.05    0.05    0.05    0.05    
0.05    0.05    0.05    0.05    0.05    
0.05    0.05    0.05    0.05    0.05    
0.05    0.05    0.05    0.05    0.05    
0.05    0.05    0.05    0.05    0.05    
0.05    0.05    0.05    0.05    0.05    
0.05    0.05    0.05    0.05    0.05    
0.05    0.05    0.05    0.05    0.05    
0.05    0.05    0.05    0.05    0.05    
0.05    0.05    0.05    0.05    0.05    
0.05    0.05    0.05    0.05    0.05    
0.05    0.05    0.05    0.05    0.05    
0.05    0.05    0.05    0.05    0.05    
0.05    0.05    0.05    0.05    0.05    
0.0    1.3877787808e-17    0.0    0.0    2.7755575616e-17    
0.0    0.0    -2.7755575616e-17    0.0    -2.7755575616e-17    
-2.7755575616e-17    -2.7755575616e-17    -2.7755575616e-17    0.0    0.0    
-2.7755575616e-17    -2.7755575616e-17    0.0    0.0    0.0    
0.0    0.0    0.0    0.0    0.0    
0.0    -2.7755575616e-17    0.0    0.0    0.0    
1.3877787808e-17    0.0    0.0    2.7755575616e-17    0.0    
0.0    -2.7755575616e-17    0.0    0.0    0.0    
0.0    0.0    0.0    0.0    0.0    
0.0    -2.7755575616e-17    0.0    0.0    0.0    
0.0    0.0    0.0    0.0    0.0    
-2.7755575616e-17    -2.7755575616e-17    0.0    0.0    0.0    
0.0    0.0    0.0    0.0    0.0    
-2.7755575616e-17    -2.7755575616e-17    0.0    0.0    0.0    
0.0    0.0    0.0    0.0    0.0    
-2.7755575616e-17    -2.7755575616e-17    
-0.45    -0.5    -0.5    -0.45    -0.4    
-0.4    -0.35    -0.35    -0.45    -0.45    
-0.5    -0.5    -0.4    -0.4    -0.35    
-0.35    -0.3    -0.3    -0.25    -0.25    
-0.2    -0.2    -0.15    -0.15    -0.1    
-0.1    -0.05    -0.05    -0.45    -0.45    
-0.5    -0.5    -0.4    -0.4    -0.35    
-0.35    -0.3    -0.3    -0.25    -0.25    
-0.2    -0.2    -0.15    -0.15    -0.1    
-0.1    -0.05    -0.05    -0.45    -0.45    
-0.5    -0.5    -0.4    -0.4    -0.35    
-0.35    -0.3    -0.3    -0.25    -0.25    
-0.2    -0.2    -0.15    -0.15    -0.1    
-0.1    -0.05    -0.05    -0.45    -0.45    
-0.5    -0.5    -0.4    -0.4    -0.35    
-0.35    -0.3    -0.3    -0.25    -0.25    
-0.2    -0.2    -0.15    -0.15    -0.1    
-0.1    -0.05    -0.05    -0.45    -0.45    
-0.5    -0.5    -0.4    -0.4    -0.35    
-0.35    -0.3    -0.3    -0.25    -0.25    
-0.2    -0.2    -0.15    -0.15    -0.1    
-0.1    -0.05    -0.05    -0.45    -0.5    
-0.4    -0.35    -0.45    -0.5    -0.4    
-0.35    -0.3    -0.25    -0.2    -0.15    
-0.1    -0.05    -0.45    -0.5    -0.4    
-0.35    -0.3    -0.25    -0.2    -0.15    
-0.1    -0.05    -0.45    -0.5    -0.4    
-0.35    -0.3    -0.25    -0.2    -0.15    
-0.1    -0.05    -0.45    -0.5    -0.4    
-0.35    -0.3    -0.25    -0.2    -0.15    
-0.1    -0.05    -0.45    -0.5    -0.4    
-0.35    -0.3    -0.25    -0.2    -0.15    
-0.1    -0.05    -0.45    -0.5    -0.4    
-0.35    -0.45    -0.5    -0.4    -0.35    
-0.3    -0.25    -0.2    -0.15    -0.1    
-0.05    -0.45    -0.5    -0.4    -0.35    
-0.3    -0.25    -0.2    -0.15    -0.1    
-0.05    -0.45    -0.5    -0.4    -0.35    
-0.3    -0.25    -0.2    -0.15    -0.1    
-0.05    -0.45    -0.5    -0.4    -0.35    
-0.3    -0.25    -0.2    -0.15    -0.1    
-0.05    -0.45    -0.5    -0.4    -0.35    
-0.3    -0.25    -0.2    -0.15    -0.1    
-0.05    -0.45    -0.5    -0.4    -0.35    
-0.45    -0.5    -0.4    -0.35    -0.3    
-0.3    -0.25    -0.25    -0.2    -0.2    
-0.15    -0.15    -0.1    -0.1    -0.05    
-0.45    -0.5    -0.4    -0.35    -0.3    
-0.25    -0.2    -0.15    -0.1    -0.05    
-0.45    -0.5    -0.4    -0.35    -0.3    
-0.25    -0.2    -0.15    -0.1    -0.05    
-0.45    -0.5    -0.4    -0.35    -0.3    
-0.25    -0.2    -0.15    -0.1    -0.05    
-0.45    -0.5    -0.4    -0.35    -0.3    
-0.25    -0.2    -0.15    -0.1    -0.05    
-0.5    -0.45    -0.4    -0.35    -0.3    
-0.25    -0.2    -0.15    -0.1    -0.45    
-0.5    -0.4    -0.35    -0.3    -0.25    
-0.2    -0.15    -0.1    -0.45    -0.5    
-0.4    -0.35    -0.3    -0.25    -0.2    
-0.15    -0.1    -0.05    -0.45    -0.5    
-0.4    -0.35    -0.3    -0.25    -0.2    
-0.15    -0.1    -0.05    -0.45    -0.5    
-0.4    -0.35    -0.3    -0.25    -0.2    
-0.15    -0.1    -0.05    -0.45    -0.5    
-0.4    -0.35    -0.3    -0.25    -0.2    
-0.15    -0.1    -0.05    -0.45    -0.5    
-0.4    -0.35    -0.3    -0.25    -0.2    
-0.15    -0.1    -0.05    -0.45    -0.5    
-0.4    -0.35    -0.3    -0.25    -0.2    
-0.15    -0.1    -0.45    -0.5    -0.4    
-0.35    -0.3    -0.25    -0.2    -0.15    
-0.1    -0.45    -0.5    -0.4    -0.35    
-0.3    -0.25    -0.2    -0.15    -0.1    
-0.05    -0.45    -0.5    -0.4    -0.35    
-0.3    -0.25    -0.2    -0.15    -0.1    
-0.05    -0.45    -0.5    -0.4    -0.35    
-0.3    -0.25    -0.2    -0.15    -0.1    
-0.05    -0.45    -0.5    -0.4    -0.35    
-0.3    -0.25    -0.2    -0.15    -0.1    
-0.05    -0.45    -0.5    -0.4    -0.35    
-0.3    -0.25    -0.2    -0.15    -0.1    
-0.05    -0.45    -0.5    -0.4    -0.35    
-0.3    -0.25    -0.2    -0.15    -0.1    
-0.05    -0.5    -0.45    -0.4    -0.35    
-0.3    -0.25    -0.2    -0.15    -0.45    
-0.5    -0.4    -0.35    -0.3    -0.25    
-0.2    -0.15    -0.1    -0.45    -0.5    
-0.4    -0.35    -0.3    -0.25    -0.2    
-0.15    -0.1    -0.05    -0.45    -0.5    
-0.4    -0.35    -0.3    -0.25    -0.2    
-0.15    -0.1    -0.05    -0.45    -0.5    
-0.4    -0.35    -0.3    -0.25    -0.2    
-0.15    -0.1    -0.05    -0.45    -0.5    
-0.4    -0.35    -0.3    -0.25    -0.2    
-0.15    -0.1    -0.05    -0.45    -0.5    
-0.4    -0.35    -0.3    -0.25    -0.2    
-0.15    -0.1    -0.05    -0.45    -0.5    
-0.4    -0.35    -0.3    -0.25    -0.2    
-0.15    -0.1    -0.05    -0.45    -0.5    
-0.4    -0.35    -0.3    -0.25    -0.2    
-0.15    -0.45    -0.5    -0.4    -0.35    
-0.3    -0.25    -0.2    -0.15    -0.1    
-0.45    -0.5    -0.4    -0.35    -0.3    
-0.25    -0.2    -0.15    -0.1    -0.05    
-0.45    -0.5    -0.4    -0.35    -0.3    
-0.25    -0.2    -0.15    -0.1    -0.05    
-0.45    -0.5    -0.4    -0.35    -0.3    
-0.25    -0.2    -0.15    -0.1    -0.05    
-0.45    -0.5    -0.4    -0.35    -0.3    
-0.25    -0.2    -0.15    -0.1    -0.05    
-0.45    -0.5    -0.4    -0.35    -0.3    
-0.25    -0.2    -0.15    -0.1    -0.05    
-0.45    -0.5    -0.4    -0.35    -0.3    
-0.25    -0.2    -0.15    -0.1    -0.05    
-0.45    -0.5    -0.4    -0.35    -0.3    
-0.25    -0.2    -0.15    -0.45    -0.5    
-0.4    -0.35    -0.3    -0.25    -0.2    
-0.15    -0.1    -0.45    -0.5    -0.4    
-0.35    -0.3    -0.25    -0.2    -0.15    
-0.1    -0.05    -0.45    -0.5    -0.4    
-0.35    -0.3    -0.25    -0.2    -0.15    
-0.1    -0.05    -0.45    -0.5    -0.4    
-0.35    -0.3    -0.25    -0.2    -0.15    
-0.1    -0.05    -0.45    -0.5    -0.4    
-0.35    -0.3    -0.25    -0.2    -0.15    
-0.1    -0.05    -0.45    -0.5    -0.4    
-0.35    -0.3    -0.25    -0.2    -0.15    
-0.1    -0.05    -0.45    -0.5    -0.4    
-0.35    -0.3    -0.25    -0.2    -0.15    
-0.1    -0.05    -0.45    -0.5    -0.4    
-0.35    -0.3    -0.25    -0.2    -0.15    
-0.45    -0.5    -0.4    -0.35    -0.3    
-0.25    -0.2    -0.15    -0.1    -0.45    
-0.5    -0.4    -0.35    -0.3    -0.25    
-0.2    -0.15    -0.1    -0.05    -0.45    
-0.5    -0.4    -0.35    -0.3    -0.25    
-0.2    -0.15    -0.1    -0.05    -0.45    
-0.5    -0.4    -0.35    -0.3    -0.25    
-0.2    -0.15    -0.1    -0.05    -0.45    
-0.5    -0.4    -0.35    -0.3    -0.25    
-0.2    -0.15    -0.1    -0.05    -0.45    
-0.5    -0.4    -0.35    -0.3    -0.25    
-0.2    -0.15    -0.1    -0.05    -0.45    
-0.5    -0.4    -0.35    -0.3    -0.25    
-0.2    -0.15    -0.1    -0.05    -0.45    
-0.5    -0.4    -0.35    -0.3    -0.25    
-0.2    -0.15    
0.2    0.2    0.2    0.2    0.2    
0.2    0.2    0.2    0.15    0.15    
0.15    0.15    0.15    0.15    0.15    
0.15    0.15    0.15    0.15    0.15    
0.15    0.15    0.15    0.15    0.15    
0.15    0.15    0.15    0.1    0.1    
0.1    0.1    0.1    0.1    0.1    
0.1    0.1    0.1    0.1    0.1    
0.1    0.1    0.1    0.1    0.1    
0.1    0.1    0.1    0.05    0.05    
0.05    0.05    0.05    0.05    0.05    
0.05    0.05    0.05    0.05    0.05    
0.05    0.05    0.05    0.05    0.05    
0.05    0.05    0.05    0.0    0.0    
0.0    0.0    0.0    0.0    0.0    
0.0    0.0    0.0    0.0    0.0    
0.0    0.0    0.0    0.0    0.0    
0.0    0.0    0.0    -0.05    -0.05    
-0.05    -0.05    -0.05    -0.05    -0.05    
-0.05    -0.05    -0.05    -0.05    -0.05    
-0.05    -0.05    -0.05    -0.05    -0.05    
-0.05    -0.05    -0.05    0.2    0.2    
0.2    0.2    0.15    0.15    0.15    
0.15    0.15    0.15    0.15    0.15    
0.15    0.15    0.1    0.1    0.1    
0.1    0.1    0.1    0.1    0.1    
0.1    0.1    0.05    0.05    0.05    
0.05    0.05    0.05    0.05    0.05    
0.05    0.05    0.0    0.0    0.0    
0.0    0.0    0.0    0.0    0.0    
0.0    0.0    -0.05    -0.05    -0.05    
-0.05    -0.05    -0.05    -0.05    -0.05    
-0.05    -0.05    0.2    0.2    0.2    
0.2    0.15    0.15    0.15    0.15    
0.15    0.15    0.15    0.15    0.15    
0.15    0.1    0.1    0.1    0.1    
0.1    0.1    0.1    0.1    0.1    
0.1    0.05    0.05    0.05    0.05    
0.05    0.05    0.05    0.05    0.05    
0.05    0.0    0.0    0.0    0.0    
0.0    0.0    0.0    0.0    0.0    
0.0    -0.05    -0.05    -0.05    -0.05    
-0.05    -0.05    -0.05    -0.05    -0.05    
-0.05    0.2    0.2    0.2    0.2    
0.15    0.15    0.15    0.15    0.15    
0.2    0.15    0.2    0.15    0.2    
0.15    0.2    0.15    0.2    0.15    
0.1    0.1    0.1    0.1    0.1    
0.1    0.1    0.1    0.1    0.1    
0.05    0.05    0.05    0.05    0.05    
0.05    0.05    0.05    0.05    0.05    
0.0    0.0    0.0    0.0    0.0    
0.0    0.0    0.0    0.0    0.0    
-0.05    -0.05    -0.05    -0.05    -0.05    
-0.05    -0.05    -0.05    -0.05    -0.05    
-0.1    -0.1    -0.1    -0.1    -0.1    
-0.1    -0.1    -0.1    -0.1    0.2    
0.2    0.2    0.2    0.2    0.2    
0.2    0.2    0.2    0.15    0.15    
0.15    0.15    0.15    0.15    0.15    
0.15    0.15    0.15    0.1    0.1    
0.1    0.1    0.1    0.1    0.1    
0.1    0.1    0.1    0.05    0.05    
0.05    0.05    0.05    0.05    0.05    
0.05    0.05    0.05    0.0    0.0    
0.0    0.0    -2.4651903288e-32    0.0    0.0    
2.4651903288e-32    0.0    0.0    -0.05    -0.05    
-0.05    -0.05    -0.05    -0.05    -0.05    
-0.05    -0.05    -0.05    -0.1    -0.1    
-0.1    -0.1    -0.1    -0.1    -0.1    
-0.1    -0.1    0.2    0.2    0.2    
0.2    0.2    0.2    0.2    0.2    
0.2    0.15    0.15    0.15    0.15    
0.15    0.15    0.15    0.15    0.15    
0.15    0.1    0.1    0.1    0.1    
0.1    0.1    0.1    0.1    0.1    
0.1    0.05    0.05    0.05    0.05    
0.05    0.05    0.05    0.05    0.05    
0.05    0.0    0.0    0.0    0.0    
0.0    0.0    0.0    0.0    0.0    
0.0    -0.05    -0.05    -0.05    -0.05    
-0.05    -0.05    -0.05    -0.05    -0.05    
-0.05    -0.1    -0.1    -0.1    -0.1    
-0.1    -0.1    -0.1    -0.1    -0.1    
-0.1    -0.15    -0.15    -0.15    -0.15    
-0.15    -0.15    -0.15    -0.15    0.2    
0.2    0.2    0.2    0.2    0.2    
0.2    0.2    0.2    0.15    0.15    
0.15    0.15    0.15    0.15    0.15    
0.15    0.15    0.15    0.1    0.1    
0.1    0.1    0.1    0.1    0.1    
0.1    0.1    0.1    0.05    0.05    
0.05    0.05    0.05    0.05    0.05    
0.05    0.05    0.05    0.0    0.0    
0.0    0.0    0.0    0.0    0.0    
0.0    0.0    0.0    -0.05    -0.05    
-0.05    -0.05    -0.05    -0.05    -0.05    
-0.05    -0.05    -0.05    -0.1    -0.1    
-0.1    -0.1    -0.1    -0.1    -0.1    
-0.1    -0.1    -0.1    -0.15    -0.15    
-0.15    -0.15    -0.15    -0.15    -0.15    
-0.15    0.2    0.2    0.2    0.2    
0.2    0.2    0.2    0.2    0.2    
0.15    0.15    0.15    0.15    0.15    
0.15    0.15    0.15    0.15    0.15    
0.1    0.1    0.1    0.1    0.1    
0.1    0.1    0.1    0.1    0.1    
0.05    0.05    0.05    0.05    0.05    
0.05    0.05    0.05    0.05    0.05    
0.0    0.0    0.0    0.0    0.0    
0.0    0.0    0.0    0.0    0.0    
-0.05    -0.05    -0.05    -0.05    -0.05    
-0.05    -0.05    -0.05    -0.05    -0.05    
-0.1    -0.1    -0.1    -0.1    -0.1    
-0.1    -0.1    -0.1    -0.1    -0.1    
-0.15    -0.15    -0.15    -0.15    -0.15    
-0.15    -0.15    -0.15    0.2    0.2    
0.2    0.2    0.2    0.2    0.2    
0.2    0.2    0.15    0.15    0.15    
0.15    0.15    0.15    0.15    0.15    
0.15    0.15    0.1    0.1    0.1    
0.1    0.1    0.1    0.1    0.1    
0.1    0.1    0.05    0.05    0.05    
0.05    0.05    0.05    0.05    0.05    
0.05    0.05    0.0    0.0    0.0    
0.0    0.0    0.0    0.0    0.0    
0.0    0.0    -0.05    -0.05    -0.05    
-0.05    -0.05    -0.05    -0.05    -0.05    
-0.05    -0.05    -0.1    -0.1    -0.1    
-0.1    -0.1    -0.1    -0.1    -0.1    
-0.1    -0.1    -0.15    -0.15    -0.15    
-0.15    -0.15    -0.15    -0.15    -0.15    
0.2    0.2    0.2    0.2    0.2    
0.2    0.2    0.2    0.2    0.15    
0.15    0.15    0.15    0.15    0.15    
0.15    0.15    0.15    0.15    0.1    
0.1    0.1    0.1    0.1    0.1    
0.1    0.1    0.1    0.1    0.05    
0.05    0.05    0.05    0.05    0.05    
0.05    0.05    0.05    0.05    0.0    
0.0    0.0    0.0    0.0    0.0    
0.0    0.0    0.0    0.0    -0.05    
-0.05    -0.05    -0.05    -0.05    -0.05    
-0.05    -0.05    -0.05    -0.05    -0.1    
-0.1    -0.1    -0.1    -0.1    -0.1    
-0.1    -0.1    -0.1    -0.1    -0.15    
-0.15    -0.15    -0.15    -0.15    -0.15    
-0.15    -0.15    
399.647307824    399.884414852    399.874990582    399.656328656    399.392037566    
399.618597382    398.951381358    399.342713469    398.192585293    399.868606958    
399.628305466    399.599156202    398.866013593    399.033087881    399.309335677    
398.045935779    398.673467408    398.984282405    397.125866305    398.24454191    
398.607096694    396.057747597    397.722581113    398.157784277    394.784615451    
397.077577559    397.611904606    393.236684702    396.270594312    396.938750718    
391.326074954    396.09877601    388.9393806    399.865385444    399.609323432    
399.589347133    398.808206267    399.292501907    397.946695758    398.959684202    
396.980772377    398.573677691    395.860465071    398.114158018    394.526788706    
397.556350025    392.907866108    396.869230516    390.913766327    396.013000344    
388.429312875    399.865385443    399.599744019    399.58934713    398.779039244    
399.292501903    397.89664443    398.959684196    396.907643212    398.573677681    
395.761127233    398.114158005    394.397136123    397.556350012    392.742807014    
396.869230506    390.707282012    396.013000335    388.17465222    399.599744016    
398.779039234    397.896644416    396.907643192    395.761127205    394.397136085    
392.742806973    390.707281976    388.174652192    399.437365313    398.283421199    
397.041803805    399.391481994    398.143655316    396.80174027    395.297156271    
393.552052972    391.474554469    388.952766227    385.846868864    381.978270646    
399.360401315    398.049009376    396.639280026    395.059681522    393.229257843    
391.052865234    388.415245324    385.173311333    381.145699544    399.344715993    
398.001254385    396.557342054    394.939987845    393.066714114    390.840799699    
388.145400859    384.835954045    380.729952807    399.344715989    398.001254369    
396.55734203    394.939987809    393.066714062    390.840799631    388.14540079    
384.835953985    380.729952762    399.233191087    397.660765334    395.969751625    
399.170646551    397.470265476    395.642610445    393.595169206    391.223362919    
388.404504182    384.990361138    380.797638618    375.595400309    399.128278404    
397.341258955    395.421211182    393.271634781    390.783768174    387.830545389    
384.259262214    379.882333926    374.465276361    399.106896244    397.276165283    
395.309543618    393.10855836    390.562398014    387.541882246    383.892198296    
379.423823301    373.900817793    399.106896235    397.276165259    395.309543577    
393.1085583    390.562397932    387.541882143    383.892198187    379.423823205    
373.900817725    399.048900428    397.098960581    395.003232931    398.971308891    
396.862656269    394.597524929    392.062540951    389.130163662    385.651797878    
381.449559823    376.306124338    369.951931485    398.918745758    396.702624016    
394.322939272    391.661420243    388.585410119    384.940990304    380.544889221    
375.17469175    368.556758098    398.892217784    396.62187325    394.184441251    
391.459227598    388.311067264    384.58346994    380.09062296    374.607812544    
367.859736615    398.892217775    396.621873225    394.184441209    391.459227536    
388.311067183    384.583469838    380.090622853    374.607812442    367.859736519    
398.888878249    396.611341349    392.655797587    394.165068824    389.937008989    
391.427883602    386.706668431    388.262476531    382.795688212    384.509104559    
377.995553607    379.976936121    374.433516111    398.798213232    396.33525374    
393.691169727    390.735170087    387.320861132    383.278900894    378.40849818    
372.467370774    365.159779334    398.736791202    396.148270605    393.370414014    
390.266768739    386.685051084    382.449829287    377.354208286    371.150232388    
363.537770998    398.705791454    396.053917957    393.208622568    390.030650935    
386.364830749    382.032787036    376.82474492    370.490188216    362.7272119    
398.918745735    398.705791445    396.702623948    396.05391793    394.322939157    
393.208622524    391.661420075    390.030650871    388.585409895    386.364830667    
384.940990014    382.032786934    380.544888922    376.824744812    375.174691472    
370.490188107    362.727211777    398.736791175    396.148270523    393.370413876    
390.266768545    386.685050823    382.449828964    377.354207945    371.15023205    
398.756728431    396.208821463    393.473775156    390.416518353    386.885975104    
382.70757024    377.674608677    371.538183345    398.655260535    395.899871278    
392.943586783    389.641796389    385.833404572    381.333314389    375.924013242    
369.346074418    361.287516516    398.586517361    395.690622714    392.584713175    
389.117906093    385.122606496    380.407038151    374.747055765    367.877164361    
359.480849398    398.551821783    395.585031944    392.403688746    388.853805098    
384.76459754    379.941060429    374.155918259    367.140939506    358.577794591    
398.551821775    395.585031918    392.403688703    388.853805039    384.764597457    
379.941060335    374.155918155    367.140939401    358.577794487    398.586517336    
395.690622637    392.584713047    389.117905915    385.122606257    380.407037863    
374.747055448    367.877164033    398.655260526    395.899871253    392.94358674    
389.641796335    385.833404499    381.333314299    375.924013135    369.346074284    
398.54549344    395.565682455    392.370194976    388.804192485    384.695873974    
379.848959289    374.034528093    366.982198397    358.370844374    398.471125285    
395.339331915    391.982060727    388.237746674    383.92764156    378.848362583    
372.76399234    365.397834729    356.424196194    398.433589936    395.225108546    
391.786271015    387.952182252    383.540685025    378.344961317    372.125790827    
364.603632265    355.450979527    398.433589927    395.225108519    391.786270973    
387.952182191    383.540684947    378.344961224    372.12579072    364.603632157    
359.480849126    355.45097943    398.655260501    398.471125261    395.899871165    
395.339331836    392.943586597    391.982060604    389.64179613    388.237746497    
385.833404217    383.92764133    381.333313939    378.848362307    375.924012745    
372.763992019    365.397834395    356.424195891    398.545493403    395.565682336    
392.370194787    388.804192216    384.695873612    379.848958846    374.034527561    
398.586517343    395.69062266    392.584713097    389.117905978    385.122606346    
380.407037971    374.747055553    367.877164102    398.471125274    395.339331886    
391.982060683    388.237746608    383.927641476    378.848362484    372.763992222    
365.397834595    356.42419612    398.392944331    395.101391773    391.57410663    
387.642496914    383.120574644    377.797582891    371.430382055    363.735824872    
354.383664255    398.353483993    394.981317964    391.368314868    387.342403504    
382.714042583    377.268907854    370.760450089    362.902616882    353.363367438    
398.353483984    394.981317936    391.368314824    387.342403439    382.714042499    
377.268907751    370.760449981    362.902616771    353.363367341    398.392944305    
395.101391692    391.574106498    387.642496727    383.1205744    377.797582596    
371.430381726    363.735824519    354.383663951    398.471125234    395.339331762    
391.982060483    388.237746316    383.927641095    378.848362022    372.763991669    
398.55182176    395.585031876    392.403688643    388.853804947    384.764597344    
379.941060197    374.15591799    367.140939186    398.433589917    395.225108494    
391.786270936    387.95218213    383.540684871    378.34496114    372.125790618    
364.603632046    355.450979381    398.353483983    394.981317935    391.368314823    
387.342403427    382.714042494    377.268907746    370.760449977    362.902616767    
353.36336735    398.313051727    394.858290692    391.157475283    387.034980972    
382.297642028    376.727502522    370.074552995    362.049809935    352.31945369    
398.313051718    394.858290663    391.157475236    387.034980907    382.29764192    
376.727502413    370.074552887    362.049809835    352.3194536    398.353483956    
394.98131785    391.36831468    387.342403223    382.714042212    377.26890742    
370.76044964    362.902616407    353.363367043    398.433589873    395.225108363    
391.786270713    387.95218181    383.540684435    378.344960632    372.125790037    

-0.425    -0.475    -0.475    -0.475    -0.375    
-0.425    -0.425    -0.375    -0.375    -0.475    
-0.475    -0.425    -0.425    -0.325    -0.375    
-0.375    -0.275    -0.325    -0.325    -0.225    
-0.275    -0.275    -0.175    -0.225    -0.225    
-0.125    -0.175    -0.175    -0.075    -0.125    
-0.125    -0.075    -0.075    -0.475    -0.475    
-0.425    -0.425    -0.375    -0.375    -0.325    
-0.325    -0.275    -0.275    -0.225    -0.225    
-0.175    -0.175    -0.125    -0.125    -0.075    
-0.075    -0.475    -0.475    -0.425    -0.425    
-0.375    -0.375    -0.325    -0.325    -0.275    
-0.275    -0.225    -0.225    -0.175    -0.175    
-0.125    -0.125    -0.075    -0.075    -0.475    
-0.425    -0.375    -0.325    -0.275    -0.225    
-0.175    -0.125    -0.075    -0.475    -0.425    
-0.375    -0.475    -0.425    -0.375    -0.325    
-0.275    -0.225    -0.175    -0.125    -0.075    
-0.475    -0.425    -0.375    -0.325    -0.275    
-0.225    -0.175    -0.125    -0.075    -0.475    
-0.425    -0.375    -0.325    -0.275    -0.225    
-0.175    -0.125    -0.075    -0.475    -0.425    
-0.375    -0.325    -0.275    -0.225    -0.175    
-0.125    -0.075    -0.475    -0.425    -0.375    
-0.475    -0.425    -0.375    -0.325    -0.275    
-0.225    -0.175    -0.125    -0.075    -0.475    
-0.425    -0.375    -0.325    -0.275    -0.225    
-0.175    -0.125    -0.075    -0.475    -0.425    
-0.375    -0.325    -0.275    -0.225    -0.175    
-0.125    -0.075    -0.475    -0.425    -0.375    
-0.325    -0.275    -0.225    -0.175    -0.125    
-0.075    -0.475    -0.425    -0.375    -0.475    
-0.425    -0.375    -0.325    -0.275    -0.225    
-0.175    -0.125    -0.075    -0.475    -0.425    
-0.375    -0.325    -0.275    -0.225    -0.175    
-0.125    -0.075    -0.475    -0.425    -0.375    
-0.325    -0.275    -0.225    -0.175    -0.125    
-0.075    -0.475    -0.425    -0.375    -0.325    
-0.275    -0.225    -0.175    -0.125    -0.075    
-0.475    -0.425    -0.325    -0.375    -0.275    
-0.325    -0.225    -0.275    -0.175    -0.225    
-0.125    -0.175    -0.125    -0.475    -0.425    
-0.375    -0.325    -0.275    -0.225    -0.175    
-0.125    -0.075    -0.475    -0.425    -0.375    
-0.325    -0.275    -0.225    -0.175    -0.125    
-0.075    -0.475    -0.425    -0.375    -0.325    
-0.275    -0.225    -0.175    -0.125    -0.075    
-0.475    -0.475    -0.425    -0.425    -0.375    
-0.375    -0.325    -0.325    -0.275    -0.275    
-0.225    -0.225    -0.175    -0.175    -0.125    
-0.125    -0.075    -0.475    -0.425    -0.375    
-0.325    -0.275    -0.225    -0.175    -0.125    
-0.475    -0.425    -0.375    -0.325    -0.275    
-0.225    -0.175    -0.125    -0.475    -0.425    
-0.375    -0.325    -0.275    -0.225    -0.175    
-0.125    -0.075    -0.475    -0.425    -0.375    
-0.325    -0.275    -0.225    -0.175    -0.125    
-0.075    -0.475    -0.425    -0.375    -0.325    