Title = " tecplot file for 2D Cavity problem " 
variables = "x", "y", "z", "velX", "cellCentroidY" 
Zone T = "nmesh0" N = 737 E = 499 DATAPACKING = BLOCK, VARLOCATION = ([4-5]=CELLCENTERED), ZONETYPE=FEBRICK
0.45    0.45    0.5    0.5    0.45    
0.5    0.45    0.45    0.5    0.5    
0.45    0.5    0.45    0.5    0.45    
0.5    0.45    0.5    0.45    0.5    
0.45    0.5    0.45    0.5    0.45    
0.5    0.45    0.5    0.45    0.5    
0.45    0.5    0.45    0.5    0.45    
0.5    0.45    0.5    0.45    0.5    
0.45    0.5    0.45    0.5    0.45    
0.5    0.45    0.5    0.45    0.5    
0.45    0.5    0.45    0.5    0.45    
0.5    0.45    0.5    0.45    0.5    
0.45    0.5    0.45    0.5    0.45    
0.5    0.45    0.5    0.45    0.5    
0.45    0.5    0.45    0.5    0.45    
0.5    0.45    0.5    0.45    0.5    
0.45    0.5    0.45    0.5    0.45    
0.5    0.45    0.5    0.45    0.5    
0.45    0.5    0.45    0.5    0.45    
0.5    0.45    0.5    0.45    0.5    
0.45    0.5    0.45    0.5    0.45    
0.5    0.45    0.5    0.45    0.5    
0.45    0.5    0.45    0.5    0.45    
0.5    0.45    0.5    0.45    0.5    
0.45    0.5    0.45    0.5    0.45    
0.5    0.45    0.5    0.45    0.5    
0.45    0.5    0.45    0.5    0.45    
0.5    0.45    0.5    0.45    0.5    
0.45    0.5    0.4    0.4    0.4    
0.4    0.4    0.4    0.4    0.4    
0.4    0.4    0.4    0.4    0.4    
0.4    0.4    0.4    0.4    0.4    
0.4    0.4    0.4    0.4    0.4    
0.4    0.4    0.4    0.4    0.4    
0.4    0.4    0.4    0.4    0.4    
0.4    0.4    0.4    0.4    0.4    
0.4    0.4    0.4    0.4    0.4    
0.4    0.4    0.4    0.4    0.4    
0.4    0.4    0.4    0.4    0.4    
0.4    0.4    0.4    0.4    0.4    
0.4    0.4    0.4    0.4    0.4    
0.4    0.4    0.4    0.4    0.4    
0.4    0.4    0.4    0.35    0.35    
0.35    0.35    0.35    0.35    0.35    
0.35    0.35    0.35    0.35    0.35    
0.35    0.35    0.35    0.35    0.35    
0.35    0.35    0.35    0.35    0.35    
0.35    0.35    0.35    0.35    0.35    
0.35    0.35    0.35    0.35    0.35    
0.35    0.35    0.35    0.35    0.35    
0.35    0.35    0.35    0.35    0.35    
0.35    0.35    0.35    0.35    0.35    
0.35    0.35    0.35    0.35    0.35    
0.35    0.35    0.35    0.35    0.35    
0.35    0.35    0.35    0.35    0.35    
0.35    0.35    0.35    0.35    0.35    
0.35    0.35    0.35    0.35    0.3    
0.3    0.3    0.3    0.3    0.3    
0.3    0.3    0.3    0.3    0.3    
0.3    0.3    0.3    0.3    0.3    
0.3    0.3    0.3    0.3    0.3    
0.3    0.3    0.3    0.3    0.3    
0.3    0.3    0.3    0.3    0.3    
0.3    0.3    0.3    0.3    0.3    
0.3    0.3    0.3    0.3    0.3    
0.3    0.3    0.3    0.3    0.3    
0.3    0.3    0.3    0.3    0.3    
0.3    0.3    0.3    0.3    0.3    
0.3    0.3    0.3    0.3    0.3    
0.3    0.3    0.3    0.3    0.3    
0.3    0.3    0.3    0.3    0.3    
0.25    0.25    0.25    0.25    0.25    
0.25    0.25    0.25    0.25    0.25    
0.25    0.25    0.25    0.25    0.25    
0.25    0.25    0.25    0.25    0.25    
0.25    0.25    0.25    0.25    0.25    
0.25    0.25    0.25    0.25    0.25    
0.25    0.25    0.25    0.25    0.25    
0.25    0.25    0.25    0.25    0.25    
0.25    0.25    0.25    0.25    0.25    
0.25    0.25    0.25    0.25    0.25    
0.25    0.25    0.25    0.25    0.25    
0.25    0.25    0.25    0.25    0.25    
0.25    0.25    0.25    0.25    0.25    
0.25    0.25    0.25    0.25    0.2    
0.2    0.2    0.2    0.2    0.2    
0.2    0.2    0.2    0.2    0.2    
0.2    0.2    0.2    0.2    0.2    
0.2    0.2    0.2    0.2    0.2    
0.2    0.2    0.2    0.2    0.2    
0.2    0.2    0.2    0.2    0.2    
0.2    0.2    0.2    0.2    0.2    
0.2    0.2    0.2    0.2    0.2    
0.2    0.2    0.2    0.2    0.2    
0.2    0.2    0.2    0.2    0.2    
0.2    0.2    0.2    0.2    0.2    
0.2    0.2    0.2    0.2    0.2    
0.2    0.2    0.2    0.2    0.2    
0.2    0.2    0.2    0.15    0.15    
0.15    0.15    0.15    0.15    0.15    
0.15    0.15    0.15    0.15    0.15    
0.15    0.15    0.15    0.15    0.15    
0.15    0.15    0.15    0.15    0.15    
0.15    0.15    0.15    0.15    0.15    
0.15    0.15    0.15    0.15    0.15    
0.15    0.15    0.15    0.15    0.15    
0.15    0.15    0.15    0.15    0.15    
0.15    0.15    0.15    0.15    0.15    
0.15    0.15    0.15    0.15    0.15    
0.15    0.15    0.15    0.15    0.15    
0.15    0.15    0.15    0.15    0.15    
0.15    0.15    0.15    0.15    0.15    
0.1    0.1    0.1    0.1    0.1    
0.1    0.1    0.1    0.1    0.1    
0.1    0.1    0.1    0.1    0.1    
0.1    0.1    0.1    0.1    0.1    
0.1    0.1    0.1    0.1    0.1    
0.1    0.1    0.1    0.1    0.1    
0.1    0.1    0.1    0.1    0.1    
0.1    0.1    0.1    0.1    0.1    
0.1    0.1    0.1    0.1    0.1    
0.1    0.1    0.1    0.1    0.1    
0.1    0.1    0.1    0.1    0.1    
0.1    0.1    0.1    0.1    0.05    
0.05    0.05    0.05    0.05    0.05    
0.05    0.05    0.05    0.05    0.05    
0.05    0.05    0.05    0.05    0.05    
0.05    0.05    0.05    0.05    0.05    
0.05    0.05    0.05    0.05    0.05    
0.05    0.05    0.05    0.05    0.05    
0.05    0.05    0.05    0.05    0.05    
0.05    0.05    0.05    0.05    0.05    
0.05    0.05    0.05    0.05    0.05    
0.05    0.05    0.05    0.05    0.05    
0.05    0.05    0.05    0.05    0.05    
0.05    0.05    0.05    0.0    0.0    
0.0    0.0    0.0    0.0    0.0    
-2.7755575616e-17    0.0    0.0    0.0    -2.7755575616e-17    
0.0    0.0    0.0    0.0    0.0    
-2.7755575616e-17    0.0    0.0    0.0    0.0    
0.0    -2.7755575616e-17    0.0    0.0    0.0    
0.0    0.0    -2.7755575616e-17    0.0    0.0    
0.0    0.0    0.0    -2.7755575616e-17    0.0    
0.0    0.0    0.0    0.0    -2.7755575616e-17    
0.0    0.0    0.0    0.0    0.0    
-2.7755575616e-17    0.0    0.0    0.0    0.0    
0.0    -2.7755575616e-17    0.0    0.0    0.0    
0.0    0.0    
0.0    -0.05    -0.05    0.0    0.05    
0.05    -0.15    -0.2    -0.2    -0.15    
-0.1    -0.1    -0.05    -0.05    0.0    
0.0    0.05    0.05    -0.2    -0.2    
-0.15    -0.15    -0.1    -0.1    -0.05    
-0.05    0.0    0.0    0.05    0.05    
-0.2    -0.2    -0.15    -0.15    -0.1    
-0.1    -0.05    -0.05    0.0    0.0    
0.05    0.05    0.1    0.1    -0.2    
-0.2    -0.15    -0.15    -0.1    -0.1    
-0.05    -0.05    -2.4980018054e-17    -2.7755575616e-17    0.05    
0.05    0.1    0.1    -0.2    -0.2    
-0.15    -0.15    -0.1    -0.1    -0.05    
-0.05    0.0    0.0    0.05    0.05    
0.1    0.1    -0.2    -0.2    -0.15    
-0.15    -0.1    -0.1    -0.05    -0.05    
0.0    0.0    0.05    0.05    0.1    
0.1    -0.2    -0.2    -0.15    -0.15    
-0.1    -0.1    -0.05    -0.05    0.0    
0.0    0.05    0.05    0.1    0.1    
-0.2    -0.2    -0.15    -0.15    -0.1    
-0.1    -0.05    -0.05    0.0    0.0    
0.05    0.05    0.1    0.1    -0.2    
-0.2    -0.15    -0.15    -0.1    -0.1    
-0.05    -0.05    0.0    0.0    0.05    
0.05    0.1    0.1    -0.2    -0.2    
-0.15    -0.15    -0.1    -0.1    -0.05    
-0.05    -1.0408340856e-17    0.0    0.05    0.05    
0.1    0.1    0.0    -0.05    0.05    
-0.15    -0.2    -0.1    -0.05    0.0    
0.05    -0.2    -0.15    -0.1    -0.05    
0.0    0.05    -0.2    -0.15    -0.1    
-0.05    0.0    0.05    0.1    -0.2    
-0.15    -0.1    -0.05    -2.2204460493e-17    0.05    
0.1    -0.2    -0.15    -0.1    -0.05    
0.0    0.05    0.1    -0.2    -0.15    
-0.1    -0.05    0.0    0.05    0.1    
-0.2    -0.15    -0.1    -0.05    0.0    
0.05    0.1    -0.2    -0.15    -0.1    
-0.05    0.0    0.05    0.1    -0.2    
-0.15    -0.1    -0.05    0.0    0.05    
0.1    -0.2    -0.15    -0.1    -0.05    
-6.9388939039e-18    0.05    0.1    0.0    -0.05    
0.05    -0.15    -0.2    -0.1    -0.05    
0.0    0.05    -0.2    -0.15    -0.1    
-0.05    0.0    0.05    -0.2    -0.15    
-0.1    -0.05    0.0    0.05    0.1    
-0.2    -0.15    -0.1    -0.05    -1.9428902931e-17    
0.05    0.1    -0.2    -0.15    -0.1    
-0.05    0.0    0.05    0.1    -0.2    
-0.15    -0.1    -0.05    0.0    0.05    
0.1    -0.2    -0.15    -0.1    -0.05    
0.0    0.05    0.1    -0.2    -0.15    
-0.1    -0.05    0.0    0.05    0.1    
-0.2    -0.15    -0.1    -0.05    0.0    
0.05    0.1    -0.2    -0.15    -0.1    
-0.05    -1.3877787808e-17    0.05    0.1    0.0    
-0.05    0.05    -0.15    -0.2    -0.1    
-0.05    0.0    0.05    -0.2    -0.15    
-0.1    -0.05    0.0    0.05    -0.2    
-0.15    -0.1    -0.05    0.0    0.05    
0.1    -0.2    -0.15    -0.1    -0.05    
-1.6653345369e-17    0.05    0.1    -0.2    -0.15    
-0.1    -0.05    0.0    0.05    0.1    
-0.2    -0.15    -0.1    -0.05    0.0    
0.05    0.1    -0.2    -0.15    -0.1    
-0.05    0.0    0.05    0.1    -0.2    
-0.15    -0.1    -0.05    0.0    0.05    
0.1    -0.2    -0.15    -0.1    -0.05    
0.0    0.05    0.1    -0.2    -0.15    
-0.1    -0.05    -6.9388939039e-18    0.05    0.1    
0.0    -0.05    0.05    -0.05    -0.1    
0.0    0.05    -0.15    -0.2    -0.1    
-0.05    0.0    0.05    -0.2    -0.15    
-0.1    -0.05    0.0    0.05    0.1    
-0.2    -0.15    -0.1    -0.05    -1.3877787808e-17    
0.05    0.1    -0.2    -0.15    -0.1    
-0.05    0.0    0.05    0.1    -0.2    
-0.15    -0.1    -0.05    0.0    0.05    
0.1    -0.2    -0.15    -0.1    -0.05    
0.0    0.05    0.1    -0.2    -0.15    
-0.1    -0.05    0.0    0.05    0.1    
-0.2    -0.15    -0.1    -0.05    0.0    
0.05    0.1    -0.2    -0.15    -0.1    
-0.05    6.9388939039e-18    0.05    0.1    0.0    
-0.05    0.05    -0.05    -0.1    0.0    
0.05    -0.15    -0.2    -0.1    -0.05    
0.0    0.05    -0.2    -0.15    -0.1    
-0.05    0.0    0.05    0.1    -0.2    
-0.15    -0.1    -0.05    -1.1102230246e-17    0.05    
0.1    -0.2    -0.15    -0.1    -0.05    
0.0    0.05    0.1    -0.2    -0.15    
-0.1    -0.05    0.0    0.05    0.1    
-0.2    -0.15    -0.1    -0.05    0.0    
0.05    0.1    -0.2    -0.15    -0.1    
-0.05    0.0    0.05    0.1    -0.2    
-0.15    -0.1    -0.05    0.0    0.05    
0.1    -0.2    -0.15    -0.1    -0.05    
-1.3877787808e-17    0.05    0.1    0.0    -0.05    
0.05    -0.05    0.0    0.05    -0.1    
-0.15    -0.05    0.0    0.05    -0.15    
-0.2    -0.1    -0.05    0.0    0.05    
0.1    -0.2    -0.15    -0.1    -0.05    
-8.3266726847e-18    0.05    0.1    -0.2    -0.15    
-0.1    -0.05    0.0    0.05    0.1    
-0.2    -0.15    -0.1    -0.05    0.0    
0.05    0.1    -0.2    -0.15    -0.1    
-0.05    0.0    0.05    0.1    -0.2    
-0.15    -0.1    -0.05    0.0    0.05    
0.1    -0.2    -0.15    -0.1    -0.05    
0.0    0.05    0.1    -0.2    -0.15    
-0.1    -0.05    -1.3877787808e-17    0.05    0.1    
0.0    -0.05    0.05    -0.05    0.0    
0.05    -0.1    -0.15    -0.05    0.0    
0.05    -0.15    -0.1    -0.05    0.0    
0.05    0.1    -0.15    -0.1    -0.05    
-5.5511151231e-18    0.05    0.1    -0.15    -0.1    
-0.05    0.0    0.05    0.1    -0.15    
-0.1    -0.05    0.0    0.05    0.1    
-0.15    -0.1    -0.05    0.0    0.05    
0.1    -0.15    -0.1    -0.05    0.0    
0.05    0.1    -0.15    -0.1    -0.05    
0.0    0.05    0.1    -0.15    -0.1    
-0.05    0.0    0.05    0.1    0.0    
-0.05    0.05    -0.05    0.0    0.05    
-0.1    -0.15    -0.05    0.0    0.05    
-0.15    -0.1    -0.05    0.0    0.05    
0.1    -0.15    -0.1    -0.05    -2.7755575616e-18    
0.05    0.1    -0.15    -0.1    -0.05    
0.0    0.05    0.1    -0.15    -0.1    
-0.05    0.0    0.05    0.1    -0.15    
-0.1    -0.05    0.0    0.05    0.1    
-0.15    -0.1    -0.05    0.0    0.05    
0.1    -0.15    -0.1    -0.05    0.0    
0.05    0.1    -0.15    -0.1    -0.05    
0.0    0.05    0.1    0.0    -0.05    
0.05    -0.05    0.0    0.05    -0.1    
-0.15    -0.05    0.0    0.05    -0.15    
-0.1    -0.05    0.0    0.05    0.1    
-0.15    -0.1    -0.05    1.2325951644e-32    0.05    
0.1    -0.15    -0.1    -0.05    0.0    
0.05    0.1    -0.15    -0.1    -0.05    
0.0    0.05    0.1    -0.15    -0.1    
-0.05    0.0    0.05    0.1    -0.15    
-0.1    -0.05    0.0    0.05    0.1    
-0.15    -0.1    -0.05    0.0    0.05    
0.1    -0.15    -0.1    -0.05    0.0    
0.05    0.1    
0.0    0.0    0.0    0.0    0.0    
0.0    -0.05    -0.05    -0.05    -0.05    
-0.05    -0.05    -0.05    -0.05    -0.05    
-0.05    -0.05    -0.05    -0.1    -0.1    
-0.1    -0.1    -0.1    -0.1    -0.1    
-0.1    -0.1    -0.1    -0.1    -0.1    
-0.15    -0.15    -0.15    -0.15    -0.15    
-0.15    -0.15    -0.15    -0.15    -0.15    
-0.15    -0.15    -0.15    -0.15    -0.2    
-0.2    -0.2    -0.2    -0.2    -0.2    
-0.2    -0.2    -0.2    -0.2    -0.2    
-0.2    -0.2    -0.2    -0.25    -0.25    
-0.25    -0.25    -0.25    -0.25    -0.25    
-0.25    -0.25    -0.25    -0.25    -0.25    
-0.25    -0.25    -0.3    -0.3    -0.3    
-0.3    -0.3    -0.3    -0.3    -0.3    
-0.3    -0.3    -0.3    -0.3    -0.3    
-0.3    -0.35    -0.35    -0.35    -0.35    
-0.35    -0.35    -0.35    -0.35    -0.35    
-0.35    -0.35    -0.35    -0.35    -0.35    
-0.4    -0.4    -0.4    -0.4    -0.4    
-0.4    -0.4    -0.4    -0.4    -0.4    
-0.4    -0.4    -0.4    -0.4    -0.45    
-0.45    -0.45    -0.45    -0.45    -0.45    
-0.45    -0.45    -0.45    -0.45    -0.45    
-0.45    -0.45    -0.45    -0.5    -0.5    
-0.5    -0.5    -0.5    -0.5    -0.5    
-0.5    -0.5    -0.5    -0.5    -0.5    
-0.5    -0.5    0.0    0.0    0.0    
-0.05    -0.05    -0.05    -0.05    -0.05    
-0.05    -0.1    -0.1    -0.1    -0.1    
-0.1    -0.1    -0.15    -0.15    -0.15    
-0.15    -0.15    -0.15    -0.15    -0.2    
-0.2    -0.2    -0.2    -0.2    -0.2    
-0.2    -0.25    -0.25    -0.25    -0.25    
-0.25    -0.25    -0.25    -0.3    -0.3    
-0.3    -0.3    -0.3    -0.3    -0.3    
-0.35    -0.35    -0.35    -0.35    -0.35    
-0.35    -0.35    -0.4    -0.4    -0.4    
-0.4    -0.4    -0.4    -0.4    -0.45    
-0.45    -0.45    -0.45    -0.45    -0.45    
-0.45    -0.5    -0.5    -0.5    -0.5    
-0.5    -0.5    -0.5    0.0    0.0    
0.0    -0.05    -0.05    -0.05    -0.05    
-0.05    -0.05    -0.1    -0.1    -0.1    
-0.1    -0.1    -0.1    -0.15    -0.15    
-0.15    -0.15    -0.15    -0.15    -0.15    
-0.2    -0.2    -0.2    -0.2    -0.2    
-0.2    -0.2    -0.25    -0.25    -0.25    
-0.25    -0.25    -0.25    -0.25    -0.3    
-0.3    -0.3    -0.3    -0.3    -0.3    
-0.3    -0.35    -0.35    -0.35    -0.35    
-0.35    -0.35    -0.35    -0.4    -0.4    
-0.4    -0.4    -0.4    -0.4    -0.4    
-0.45    -0.45    -0.45    -0.45    -0.45    
-0.45    -0.45    -0.5    -0.5    -0.5    
-0.5    -0.5    -0.5    -0.5    0.0    
0.0    0.0    -0.05    -0.05    -0.05    
-0.05    -0.05    -0.05    -0.1    -0.1    
-0.1    -0.1    -0.1    -0.1    -0.15    
-0.15    -0.15    -0.15    -0.15    -0.15    
-0.15    -0.2    -0.2    -0.2    -0.2    
-0.2    -0.2    -0.2    -0.25    -0.25    
-0.25    -0.25    -0.25    -0.25    -0.25    
-0.3    -0.3    -0.3    -0.3    -0.3    
-0.3    -0.3    -0.35    -0.35    -0.35    
-0.35    -0.35    -0.35    -0.35    -0.4    
-0.4    -0.4    -0.4    -0.4    -0.4    
-0.4    -0.45    -0.45    -0.45    -0.45    
-0.45    -0.45    -0.45    -0.5    -0.5    
-0.5    -0.5    -0.5    -0.5    -0.5    
0.0    0.0    0.0    -0.05    -0.05    
-0.05    -0.05    -0.1    -0.1    -0.1    
-0.1    -0.1    -0.1    -0.15    -0.15    
-0.15    -0.15    -0.15    -0.15    -0.15    
-0.2    -0.2    -0.2    -0.2    -0.2    
-0.2    -0.2    -0.25    -0.25    -0.25    
-0.25    -0.25    -0.25    -0.25    -0.3    
-0.3    -0.3    -0.3    -0.3    -0.3    
-0.3    -0.35    -0.35    -0.35    -0.35    
-0.35    -0.35    -0.35    -0.4    -0.4    
-0.4    -0.4    -0.4    -0.4    -0.4    
-0.45    -0.45    -0.45    -0.45    -0.45    
-0.45    -0.45    -0.5    -0.5    -0.5    
-0.5    -0.5    -0.5    -0.5    0.0    
0.0    0.0    -0.05    -0.05    -0.05    
-0.05    -0.1    -0.1    -0.1    -0.1    
-0.1    -0.1    -0.15    -0.15    -0.15    
-0.15    -0.15    -0.15    -0.15    -0.2    
-0.2    -0.2    -0.2    -0.2    -0.2    
-0.2    -0.25    -0.25    -0.25    -0.25    
-0.25    -0.25    -0.25    -0.3    -0.3    
-0.3    -0.3    -0.3    -0.3    -0.3    
-0.35    -0.35    -0.35    -0.35    -0.35    
-0.35    -0.35    -0.4    -0.4    -0.4    
-0.4    -0.4    -0.4    -0.4    -0.45    
-0.45    -0.45    -0.45    -0.45    -0.45    
-0.45    -0.5    -0.5    -0.5    -0.5    
-0.5    -0.5    -0.5    0.0    0.0    
0.0    -0.05    -0.05    -0.05    -0.1    
-0.1    -0.1    -0.1    -0.1    -0.15    
-0.15    -0.15    -0.15    -0.15    -0.15    
-0.15    -0.2    -0.2    -0.2    -0.2    
-0.2    -0.2    -0.2    -0.25    -0.25    
-0.25    -0.25    -0.25    -0.25    -0.25    
-0.3    -0.3    -0.3    -0.3    -0.3    
-0.3    -0.3    -0.35    -0.35    -0.35    
-0.35    -0.35    -0.35    -0.35    -0.4    
-0.4    -0.4    -0.4    -0.4    -0.4    
-0.4    -0.45    -0.45    -0.45    -0.45    
-0.45    -0.45    -0.45    -0.5    -0.5    
-0.5    -0.5    -0.5    -0.5    -0.5    
0.0    0.0    0.0    -0.05    -0.05    
-0.05    -0.1    -0.1    -0.1    -0.1    
-0.1    -0.15    -0.15    -0.15    -0.15    
-0.15    -0.15    -0.2    -0.2    -0.2    
-0.2    -0.2    -0.2    -0.25    -0.25    
-0.25    -0.25    -0.25    -0.25    -0.3    
-0.3    -0.3    -0.3    -0.3    -0.3    
-0.35    -0.35    -0.35    -0.35    -0.35    
-0.35    -0.4    -0.4    -0.4    -0.4    
-0.4    -0.4    -0.45    -0.45    -0.45    
-0.45    -0.45    -0.45    -0.5    -0.5    
-0.5    -0.5    -0.5    -0.5    0.0    
0.0    0.0    -0.05    -0.05    -0.05    
-0.1    -0.1    -0.1    -0.1    -0.1    
-0.15    -0.15    -0.15    -0.15    -0.15    
-0.15    -0.2    -0.2    -0.2    -0.2    
-0.2    -0.2    -0.25    -0.25    -0.25    
-0.25    -0.25    -0.25    -0.3    -0.3    
-0.3    -0.3    -0.3    -0.3    -0.35    
-0.35    -0.35    -0.35    -0.35    -0.35    
-0.4    -0.4    -0.4    -0.4    -0.4    
-0.4    -0.45    -0.45    -0.45    -0.45    
-0.45    -0.45    -0.5    -0.5    -0.5    
-0.5    -0.5    -0.5    0.0    0.0    
0.0    -0.05    -0.05    -0.05    -0.1    
-0.1    -0.1    -0.1    -0.1    -0.15    
-0.15    -0.15    -0.15    -0.15    -0.15    
-0.2    -0.2    -0.2    -0.2    -0.2    
-0.2    -0.25    -0.25    -0.25    -0.25    
-0.25    -0.25    -0.3    -0.3    -0.3    
-0.3    -0.3    -0.3    -0.35    -0.35    
-0.35    -0.35    -0.35    -0.35    -0.4    
-0.4    -0.4    -0.4    -0.4    -0.4    
-0.45    -0.45    -0.45    -0.45    -0.45    
-0.45    -0.5    -0.5    -0.5    -0.5    
-0.5    -0.5    
394.935343332    393.565572694    397.611904581    396.938750698    396.098775996    
395.039773814    393.690896182    397.722581088    397.077577546    396.270594304    
395.249798582    393.944234458    397.887358994    397.285041824    396.528627418    
395.567234352    394.330306307    392.716709733    398.104340621    397.559557115    
396.872243703    395.993513355    394.854442017    393.354501046    398.370373845    
397.897993759    397.299001272    396.528125556    395.520293727    394.178530291    
398.680661357    398.294990015    397.803465629    397.166643949    396.326647668    
395.195111415    399.028458852    398.742359015    398.376083656    397.898637087    
397.263636821    396.398520625    399.404978534    399.228795847    399.002467094    
398.706056829    398.309255316    397.7636475    399.799596921    399.740085236    
399.663493276    399.562926784    399.427807338    399.241021283    384.993713172    
380.962327238    392.90786603    390.913766265    388.429312841    385.303602604    
381.33398947    393.236684626    391.326074906    388.939380581    385.926753137    
382.085152844    393.726204336    391.942171689    389.705277734    386.868394791    
383.229523583    378.503184751    394.370752654    392.757279897    390.725006751    
388.132547846    384.782479665    380.39072864    395.160928524    393.762034064    
391.991180258    389.717426579    386.75431055    382.82755713    396.082450141    
394.940450344    393.487540506    391.609631699    389.140847764    385.831128237    
397.115267806    396.268184734    395.185656761    393.778038349    391.912397047    
389.383360876    398.233285045    397.711681043    397.042840047    396.169111522    
395.003638724    393.409416092    399.404978534    399.228795846    399.002467094    
398.706056829    398.309255317    397.7636475    375.592640554    369.11616364    
388.415245173    385.173311211    381.145699466    376.098073271    369.721659122    
388.952766091    385.846868783    381.978270609    377.11418944    370.944990932    
389.752882816    386.853151472    383.228085196    378.649032082    372.807623138    
365.278584704    390.806216647    388.184157132    384.891511071    380.708465946    
375.333325377    368.341983035    392.097289185    389.824371623    386.956072389    
383.288763584    378.537258458    372.291298576    393.602665429    391.747502619    
389.394858349    386.367293061    382.410971392    377.151349736    395.289532605    
393.913693433    392.161253276    389.892795978    386.904859749    382.889625614    
397.115267809    396.268184737    395.185656765    393.778038354    391.912397052    
389.38336088    399.028458852    398.742359016    398.376083657    397.898637089    
397.263636823    396.398520625    367.025300052    358.416310635    384.259261961    
379.882333704    374.465276223    367.710648526    359.236083642    384.990360926    
380.797638475    375.595400237    369.088016598    360.891567986    386.078435737    
382.164743243    377.29126819    371.167433994    363.4102822    353.507604409    
387.51053631    383.972412087    379.547279032    373.955615728    366.822142028    
357.634337949    389.265408457    386.199174371    382.345749447    377.446065091    
371.144881282    362.944907879    391.311016976    388.80897653    385.649488249    
381.606737358    376.364219577    369.466874728    393.602665427    391.747502618    
389.394858355    386.367293067    382.410971396    377.151349735    396.082450141    
394.940450348    393.487540513    391.609631709    389.140847773    385.831128242    
398.680661355    398.294990016    397.803465631    397.166643952    396.326647671    
395.195111416    359.506083014    349.123667906    368.556757899    360.351141446    
350.132705154    381.449559489    376.306124074    369.95193133    362.048859404    
352.169336515    382.795687978    377.995553505    372.04466743    364.610389173    
355.265321677    343.456355645    384.566975385    380.228582465    374.82711766    
368.042308291    359.45440965    348.507501022    386.736837368    382.978128084    
378.276417567    372.33464316    364.754694668    354.994943013    389.265408441    
386.199174355    382.345749445    377.446065092    371.144881283    362.944907878    
392.097289169    389.824371618    386.956072388    383.288763589    378.537258462    
372.291298576    395.160928518    393.762034064    391.991180261    389.717426586    
386.75431056    382.827557137    398.370373842    397.897993758    397.299001272    
396.528125556    395.520293729    394.178530293    353.170569393    341.378764648    
363.537770696    354.151794905    342.548293088    378.408497711    372.467370418    
365.15977909    356.122341409    344.907630071    379.976935756    374.433515909    
367.591744756    359.093744277    348.49115697    335.222082566    382.040200843    
377.031308114    370.823451219    363.071674423    353.334490248    341.044133874    
384.566975351    380.228582436    374.827117646    368.042308285    359.454409646    
348.507501031    387.51053626    383.972412054    379.547279011    373.955615718    
366.822142025    357.634337947    390.806216611    388.184157105    384.891511057    
380.708465939    375.333325373    368.341983035    394.370752635    392.757279884    
390.725006744    388.132547845    384.782479672    380.390728649    398.104340612    
397.55955711    396.8722437    395.993513354    394.854442016    393.354501044    
348.088992938    335.230039895    349.180653742    336.529040277    369.346074003    
361.287516206    351.372240742    339.148331678    377.674608175    371.538183045    
363.995310644    354.675158955    343.123673069    328.787902273    379.976935694    
374.433515879    367.591744744    359.093744263    348.491156954    335.222082503    
382.79568788    377.995553442    372.044667396    364.610389146    355.265321658    
343.456355601    386.078435635    382.16474317    377.291268146    371.167433964    
363.410282179    353.507604369    389.75288274    386.853151416    383.228085158    
378.649032058    372.807623122    365.27858467    393.726204288    391.942171659    
389.70527772    386.868394779    383.229523575    378.503184734    397.887358974    
397.285041811    396.528627411    395.567234346    394.330306301    392.716709721    
344.285907497    330.668437384    345.461004899    332.064796529    366.982197929    
358.370844019    347.819442572    334.879320345    369.346073914    361.287516208    
351.37224074    339.14833165    324.078085684    372.467370351    365.159779088    
356.122341376    344.90763002    330.966320812    376.306123986    369.951931286    
362.048859355    352.169336467    339.769934856    380.797638383    375.595400171    
369.088016544    360.891567937    350.500698042    385.846868704    381.978270558    
377.114189392    370.944990885    363.049753037    391.326074856    388.939380552    
385.926753111    382.085152815    377.131425481    397.077577524    396.270594289    
395.249798569    393.944234446    392.253487282    341.760123258    327.659037401    
342.991033629    329.120282323    365.397834097    356.424195731    345.46100485    
332.064796416    367.877163694    359.480848985    349.180653703    336.529040139    
321.002126709    371.150231818    363.537770651    354.151794849    342.548292928    
328.189823349    375.174691271    368.556757812    360.351141367    350.132705003    
337.367708207    379.882333569    374.465276142    367.710648434    359.236083494    
348.543610269    385.173311085    381.145699387    376.09807319    369.721658999    
361.600653647    390.913766182    388.429312784    385.303602555    381.333989401    
376.240298791    396.938750665    396.098775975    395.039773791    393.690896153    
391.952702796    340.501270904    326.165384593    341.760123043    327.659037177    
364.603631533    355.450978999    344.285907241    330.668437044    367.140938761    
358.577794108    348.088992678    335.230039537    319.484964082    370.490187569    
362.727211479    353.170569143    341.37876428    326.821252683    374.607811997    
367.859736261    359.506082786    349.123667564    336.184475802    379.423822878    
373.900817506    367.025299844    358.416310332    347.580337672    384.835953744    
380.729952592    375.592640389    369.116163409    360.887880448    390.707281833    
388.174652093    384.993713065    380.9623271    375.802197116    396.869230451    
396.013000295    394.935343291    393.56557264    391.804869349    
-0.025    0.025    -0.175    -0.125    -0.075    
-0.025    0.025    -0.175    -0.125    -0.075    
-0.025    0.025    -0.175    -0.125    -0.075    
-0.025    0.025    0.075    -0.175    -0.125    
-0.075    -0.025    0.025    0.075    -0.175    
-0.125    -0.075    -0.025    0.025    0.075    
-0.175    -0.125    -0.075    -0.025    0.025    
0.075    -0.175    -0.125    -0.075    -0.025    
0.025    0.075    -0.175    -0.125    -0.075    
-0.025    0.025    0.075    -0.175    -0.125    
-0.075    -0.025    0.025    0.075    -0.025    
0.025    -0.175    -0.125    -0.075    -0.025    
0.025    -0.175    -0.125    -0.075    -0.025    
0.025    -0.175    -0.125    -0.075    -0.025    
0.025    0.075    -0.175    -0.125    -0.075    
-0.025    0.025    0.075    -0.175    -0.125    
-0.075    -0.025    0.025    0.075    -0.175    
-0.125    -0.075    -0.025    0.025    0.075    
-0.175    -0.125    -0.075    -0.025    0.025    
0.075    -0.175    -0.125    -0.075    -0.025    
0.025    0.075    -0.175    -0.125    -0.075    
-0.025    0.025    0.075    -0.025    0.025    
-0.175    -0.125    -0.075    -0.025    0.025    
-0.175    -0.125    -0.075    -0.025    0.025    
-0.175    -0.125    -0.075    -0.025    0.025    
0.075    -0.175    -0.125    -0.075    -0.025    
0.025    0.075    -0.175    -0.125    -0.075    
-0.025    0.025    0.075    -0.175    -0.125    
-0.075    -0.025    0.025    0.075    -0.175    
-0.125    -0.075    -0.025    0.025    0.075    
-0.175    -0.125    -0.075    -0.025    0.025    
0.075    -0.175    -0.125    -0.075    -0.025    
0.025    0.075    -0.025    0.025    -0.175    
-0.125    -0.075    -0.025    0.025    -0.175    
-0.125    -0.075    -0.025    0.025    -0.175    
-0.125    -0.075    -0.025    0.025    0.075    
-0.175    -0.125    -0.075    -0.025    0.025    
0.075    -0.175    -0.125    -0.075    -0.025    
0.025    0.075    -0.175    -0.125    -0.075    
-0.025    0.025    0.075    -0.175    -0.125    
-0.075    -0.025    0.025    0.075    -0.175    
-0.125    -0.075    -0.025    0.025    0.075    
-0.175    -0.125    -0.075    -0.025    0.025    
0.075    -0.025    0.025    -0.075    -0.025    
0.025    -0.175    -0.125    -0.075    -0.025    
0.025    -0.175    -0.125    -0.075    -0.025    
0.025    0.075    -0.175    -0.125    -0.075    
-0.025    0.025    0.075    -0.175    -0.125    
-0.075    -0.025    0.025    0.075    -0.175    
-0.125    -0.075    -0.025    0.025    0.075    
-0.175    -0.125    -0.075    -0.025    0.025    
0.075    -0.175    -0.125    -0.075    -0.025    
0.025    0.075    -0.175    -0.125    -0.075    
-0.025    0.025    0.075    -0.025    0.025    
-0.075    -0.025    0.025    -0.175    -0.125    
-0.075    -0.025    0.025    -0.175    -0.125    