Title = " tecplot file for 2D Cavity problem " 
variables = "x", "y", "z", "velX", "cellCentroidY" 
Zone T = "nmesh0" N = 737 E = 499 DATAPACKING = BLOCK, VARLOCATION = ([4-5]=CELLCENTERED), ZONETYPE=FEBRICK
0.45    0.45    0.5    0.5    0.45    
0.5    0.45    0.45    0.5    0.5    
0.45    0.5    0.45    0.5    0.45    
0.5    0.45    0.5    0.45    0.5    
0.45    0.5    0.45    0.5    0.45    
0.5    0.45    0.5    0.45    0.5    
0.45    0.5    0.45    0.5    0.45    
0.5    0.45    0.5    0.45    0.5    
0.45    0.5    0.45    0.5    0.45    
0.5    0.45    0.5    0.45    0.5    
0.45    0.5    0.45    0.5    0.45    
0.5    0.45    0.5    0.45    0.5    
0.45    0.5    0.45    0.5    0.45    
0.5    0.45    0.5    0.45    0.5    
0.45    0.5    0.45    0.5    0.45    
0.5    0.45    0.5    0.45    0.5    
0.45    0.5    0.45    0.5    0.45    
0.5    0.45    0.5    0.45    0.5    
0.45    0.5    0.45    0.5    0.45    
0.5    0.45    0.5    0.45    0.5    
0.45    0.5    0.45    0.5    0.45    
0.5    0.45    0.5    0.45    0.5    
0.45    0.5    0.45    0.5    0.45    
0.5    0.45    0.5    0.45    0.5    
0.45    0.5    0.45    0.5    0.45    
0.5    0.45    0.5    0.45    0.5    
0.45    0.5    0.45    0.5    0.45    
0.5    0.45    0.5    0.45    0.5    
0.45    0.5    0.4    0.4    0.4    
0.4    0.4    0.4    0.4    0.4    
0.4    0.4    0.4    0.4    0.4    
0.4    0.4    0.4    0.4    0.4    
0.4    0.4    0.4    0.4    0.4    
0.4    0.4    0.4    0.4    0.4    
0.4    0.4    0.4    0.4    0.4    
0.4    0.4    0.4    0.4    0.4    
0.4    0.4    0.4    0.4    0.4    
0.4    0.4    0.4    0.4    0.4    
0.4    0.4    0.4    0.4    0.4    
0.4    0.4    0.4    0.4    0.4    
0.4    0.4    0.4    0.4    0.4    
0.4    0.4    0.4    0.4    0.4    
0.4    0.4    0.4    0.35    0.35    
0.35    0.35    0.35    0.35    0.35    
0.35    0.35    0.35    0.35    0.35    
0.35    0.35    0.35    0.35    0.35    
0.35    0.35    0.35    0.35    0.35    
0.35    0.35    0.35    0.35    0.35    
0.35    0.35    0.35    0.35    0.35    
0.35    0.35    0.35    0.35    0.35    
0.35    0.35    0.35    0.35    0.35    
0.35    0.35    0.35    0.35    0.35    
0.35    0.35    0.35    0.35    0.35    
0.35    0.35    0.35    0.35    0.35    
0.35    0.35    0.35    0.35    0.35    
0.35    0.35    0.35    0.35    0.35    
0.35    0.35    0.35    0.35    0.3    
0.3    0.3    0.3    0.3    0.3    
0.3    0.3    0.3    0.3    0.3    
0.3    0.3    0.3    0.3    0.3    
0.3    0.3    0.3    0.3    0.3    
0.3    0.3    0.3    0.3    0.3    
0.3    0.3    0.3    0.3    0.3    
0.3    0.3    0.3    0.3    0.3    
0.3    0.3    0.3    0.3    0.3    
0.3    0.3    0.3    0.3    0.3    
0.3    0.3    0.3    0.3    0.3    
0.3    0.3    0.3    0.3    0.3    
0.3    0.3    0.3    0.3    0.3    
0.3    0.3    0.3    0.3    0.3    
0.3    0.3    0.3    0.3    0.3    
0.25    0.25    0.25    0.25    0.25    
0.25    0.25    0.25    0.25    0.25    
0.25    0.25    0.25    0.25    0.25    
0.25    0.25    0.25    0.25    0.25    
0.25    0.25    0.25    0.25    0.25    
0.25    0.25    0.25    0.25    0.25    
0.25    0.25    0.25    0.25    0.25    
0.25    0.25    0.25    0.25    0.25    
0.25    0.25    0.25    0.25    0.25    
0.25    0.25    0.25    0.25    0.25    
0.25    0.25    0.25    0.25    0.25    
0.25    0.25    0.25    0.25    0.25    
0.25    0.25    0.25    0.25    0.25    
0.25    0.25    0.25    0.25    0.2    
0.2    0.2    0.2    0.2    0.2    
0.2    0.2    0.2    0.2    0.2    
0.2    0.2    0.2    0.2    0.2    
0.2    0.2    0.2    0.2    0.2    
0.2    0.2    0.2    0.2    0.2    
0.2    0.2    0.2    0.2    0.2    
0.2    0.2    0.2    0.2    0.2    
0.2    0.2    0.2    0.2    0.2    
0.2    0.2    0.2    0.2    0.2    
0.2    0.2    0.2    0.2    0.2    
0.2    0.2    0.2    0.2    0.2    
0.2    0.2    0.2    0.2    0.2    
0.2    0.2    0.2    0.2    0.2    
0.2    0.2    0.2    0.15    0.15    
0.15    0.15    0.15    0.15    0.15    
0.15    0.15    0.15    0.15    0.15    
0.15    0.15    0.15    0.15    0.15    
0.15    0.15    0.15    0.15    0.15    
0.15    0.15    0.15    0.15    0.15    
0.15    0.15    0.15    0.15    0.15    
0.15    0.15    0.15    0.15    0.15    
0.15    0.15    0.15    0.15    0.15    
0.15    0.15    0.15    0.15    0.15    
0.15    0.15    0.15    0.15    0.15    
0.15    0.15    0.15    0.15    0.15    
0.15    0.15    0.15    0.15    0.15    
0.15    0.15    0.15    0.15    0.15    
0.1    0.1    0.1    0.1    0.1    
0.1    0.1    0.1    0.1    0.1    
0.1    0.1    0.1    0.1    0.1    
0.1    0.1    0.1    0.1    0.1    
0.1    0.1    0.1    0.1    0.1    
0.1    0.1    0.1    0.1    0.1    
0.1    0.1    0.1    0.1    0.1    
0.1    0.1    0.1    0.1    0.1    
0.1    0.1    0.1    0.1    0.1    
0.1    0.1    0.1    0.1    0.1    
0.1    0.1    0.1    0.1    0.1    
0.1    0.1    0.1    0.1    0.05    
0.05    0.05    0.05    0.05    0.05    
0.05    0.05    0.05    0.05    0.05    
0.05    0.05    0.05    0.05    0.05    
0.05    0.05    0.05    0.05    0.05    
0.05    0.05    0.05    0.05    0.05    
0.05    0.05    0.05    0.05    0.05    
0.05    0.05    0.05    0.05    0.05    
0.05    0.05    0.05    0.05    0.05    
0.05    0.05    0.05    0.05    0.05    
0.05    0.05    0.05    0.05    0.05    
0.05    0.05    0.05    0.05    0.05    
0.05    0.05    0.05    0.0    0.0    
0.0    0.0    0.0    0.0    0.0    
-2.7755575616e-17    0.0    0.0    0.0    -2.7755575616e-17    
0.0    0.0    0.0    0.0    0.0    
-2.7755575616e-17    0.0    0.0    0.0    0.0    
0.0    -2.7755575616e-17    0.0    0.0    0.0    
0.0    0.0    -2.7755575616e-17    0.0    0.0    
0.0    0.0    0.0    -2.7755575616e-17    0.0    
0.0    0.0    0.0    0.0    -2.7755575616e-17    
0.0    0.0    0.0    0.0    0.0    
-2.7755575616e-17    0.0    0.0    0.0    0.0    
0.0    -2.7755575616e-17    0.0    0.0    0.0    
0.0    0.0    
0.0    -0.05    -0.05    0.0    0.05    
0.05    -0.15    -0.2    -0.2    -0.15    
-0.1    -0.1    -0.05    -0.05    0.0    
0.0    0.05    0.05    -0.2    -0.2    
-0.15    -0.15    -0.1    -0.1    -0.05    
-0.05    0.0    0.0    0.05    0.05    
-0.2    -0.2    -0.15    -0.15    -0.1    
-0.1    -0.05    -0.05    0.0    0.0    
0.05    0.05    0.1    0.1    -0.2    
-0.2    -0.15    -0.15    -0.1    -0.1    
-0.05    -0.05    -2.4980018054e-17    -2.7755575616e-17    0.05    
0.05    0.1    0.1    -0.2    -0.2    
-0.15    -0.15    -0.1    -0.1    -0.05    
-0.05    0.0    0.0    0.05    0.05    
0.1    0.1    -0.2    -0.2    -0.15    
-0.15    -0.1    -0.1    -0.05    -0.05    
0.0    0.0    0.05    0.05    0.1    
0.1    -0.2    -0.2    -0.15    -0.15    
-0.1    -0.1    -0.05    -0.05    0.0    
0.0    0.05    0.05    0.1    0.1    
-0.2    -0.2    -0.15    -0.15    -0.1    
-0.1    -0.05    -0.05    0.0    0.0    
0.05    0.05    0.1    0.1    -0.2    
-0.2    -0.15    -0.15    -0.1    -0.1    
-0.05    -0.05    0.0    0.0    0.05    
0.05    0.1    0.1    -0.2    -0.2    
-0.15    -0.15    -0.1    -0.1    -0.05    
-0.05    -1.0408340856e-17    0.0    0.05    0.05    
0.1    0.1    0.0    -0.05    0.05    
-0.15    -0.2    -0.1    -0.05    0.0    
0.05    -0.2    -0.15    -0.1    -0.05    
0.0    0.05    -0.2    -0.15    -0.1    
-0.05    0.0    0.05    0.1    -0.2    
-0.15    -0.1    -0.05    -2.2204460493e-17    0.05    
0.1    -0.2    -0.15    -0.1    -0.05    
0.0    0.05    0.1    -0.2    -0.15    
-0.1    -0.05    0.0    0.05    0.1    
-0.2    -0.15    -0.1    -0.05    0.0    
0.05    0.1    -0.2    -0.15    -0.1    
-0.05    0.0    0.05    0.1    -0.2    
-0.15    -0.1    -0.05    0.0    0.05    
0.1    -0.2    -0.15    -0.1    -0.05    
-6.9388939039e-18    0.05    0.1    0.0    -0.05    
0.05    -0.15    -0.2    -0.1    -0.05    
0.0    0.05    -0.2    -0.15    -0.1    
-0.05    0.0    0.05    -0.2    -0.15    
-0.1    -0.05    0.0    0.05    0.1    
-0.2    -0.15    -0.1    -0.05    -1.9428902931e-17    
0.05    0.1    -0.2    -0.15    -0.1    
-0.05    0.0    0.05    0.1    -0.2    
-0.15    -0.1    -0.05    0.0    0.05    
0.1    -0.2    -0.15    -0.1    -0.05    
0.0    0.05    0.1    -0.2    -0.15    
-0.1    -0.05    0.0    0.05    0.1    
-0.2    -0.15    -0.1    -0.05    0.0    
0.05    0.1    -0.2    -0.15    -0.1    
-0.05    -1.3877787808e-17    0.05    0.1    0.0    
-0.05    0.05    -0.15    -0.2    -0.1    
-0.05    0.0    0.05    -0.2    -0.15    
-0.1    -0.05    0.0    0.05    -0.2    
-0.15    -0.1    -0.05    0.0    0.05    
0.1    -0.2    -0.15    -0.1    -0.05    
-1.6653345369e-17    0.05    0.1    -0.2    -0.15    
-0.1    -0.05    0.0    0.05    0.1    
-0.2    -0.15    -0.1    -0.05    0.0    
0.05    0.1    -0.2    -0.15    -0.1    
-0.05    0.0    0.05    0.1    -0.2    
-0.15    -0.1    -0.05    0.0    0.05    
0.1    -0.2    -0.15    -0.1    -0.05    
0.0    0.05    0.1    -0.2    -0.15    
-0.1    -0.05    -6.9388939039e-18    0.05    0.1    
0.0    -0.05    0.05    -0.05    -0.1    
0.0    0.05    -0.15    -0.2    -0.1    
-0.05    0.0    0.05    -0.2    -0.15    
-0.1    -0.05    0.0    0.05    0.1    
-0.2    -0.15    -0.1    -0.05    -1.3877787808e-17    
0.05    0.1    -0.2    -0.15    -0.1    
-0.05    0.0    0.05    0.1    -0.2    
-0.15    -0.1    -0.05    0.0    0.05    
0.1    -0.2    -0.15    -0.1    -0.05    
0.0    0.05    0.1    -0.2    -0.15    
-0.1    -0.05    0.0    0.05    0.1    
-0.2    -0.15    -0.1    -0.05    0.0    
0.05    0.1    -0.2    -0.15    -0.1    
-0.05    6.9388939039e-18    0.05    0.1    0.0    
-0.05    0.05    -0.05    -0.1    0.0    
0.05    -0.15    -0.2    -0.1    -0.05    
0.0    0.05    -0.2    -0.15    -0.1    
-0.05    0.0    0.05    0.1    -0.2    
-0.15    -0.1    -0.05    -1.1102230246e-17    0.05    
0.1    -0.2    -0.15    -0.1    -0.05    
0.0    0.05    0.1    -0.2    -0.15    
-0.1    -0.05    0.0    0.05    0.1    
-0.2    -0.15    -0.1    -0.05    0.0    
0.05    0.1    -0.2    -0.15    -0.1    
-0.05    0.0    0.05    0.1    -0.2    
-0.15    -0.1    -0.05    0.0    0.05    
0.1    -0.2    -0.15    -0.1    -0.05    
-1.3877787808e-17    0.05    0.1    0.0    -0.05    
0.05    -0.05    0.0    0.05    -0.1    
-0.15    -0.05    0.0    0.05    -0.15    
-0.2    -0.1    -0.05    0.0    0.05    
0.1    -0.2    -0.15    -0.1    -0.05    
-8.3266726847e-18    0.05    0.1    -0.2    -0.15    
-0.1    -0.05    0.0    0.05    0.1    
-0.2    -0.15    -0.1    -0.05    0.0    
0.05    0.1    -0.2    -0.15    -0.1    
-0.05    0.0    0.05    0.1    -0.2    
-0.15    -0.1    -0.05    0.0    0.05    
0.1    -0.2    -0.15    -0.1    -0.05    
0.0    0.05    0.1    -0.2    -0.15    
-0.1    -0.05    -1.3877787808e-17    0.05    0.1    
0.0    -0.05    0.05    -0.05    0.0    
0.05    -0.1    -0.15    -0.05    0.0    
0.05    -0.15    -0.1    -0.05    0.0    
0.05    0.1    -0.15    -0.1    -0.05    
-5.5511151231e-18    0.05    0.1    -0.15    -0.1    
-0.05    0.0    0.05    0.1    -0.15    
-0.1    -0.05    0.0    0.05    0.1    
-0.15    -0.1    -0.05    0.0    0.05    
0.1    -0.15    -0.1    -0.05    0.0    
0.05    0.1    -0.15    -0.1    -0.05    
0.0    0.05    0.1    -0.15    -0.1    
-0.05    0.0    0.05    0.1    0.0    
-0.05    0.05    -0.05    0.0    0.05    
-0.1    -0.15    -0.05    0.0    0.05    
-0.15    -0.1    -0.05    0.0    0.05    
0.1    -0.15    -0.1    -0.05    -2.7755575616e-18    
0.05    0.1    -0.15    -0.1    -0.05    
0.0    0.05    0.1    -0.15    -0.1    
-0.05    0.0    0.05    0.1    -0.15    
-0.1    -0.05    0.0    0.05    0.1    
-0.15    -0.1    -0.05    0.0    0.05    
0.1    -0.15    -0.1    -0.05    0.0    
0.05    0.1    -0.15    -0.1    -0.05    
0.0    0.05    0.1    0.0    -0.05    
0.05    -0.05    0.0    0.05    -0.1    
-0.15    -0.05    0.0    0.05    -0.15    
-0.1    -0.05    0.0    0.05    0.1    
-0.15    -0.1    -0.05    1.2325951644e-32    0.05    
0.1    -0.15    -0.1    -0.05    0.0    
0.05    0.1    -0.15    -0.1    -0.05    
0.0    0.05    0.1    -0.15    -0.1    
-0.05    0.0    0.05    0.1    -0.15    
-0.1    -0.05    0.0    0.05    0.1    
-0.15    -0.1    -0.05    0.0    0.05    
0.1    -0.15    -0.1    -0.05    0.0    
0.05    0.1    
0.0    0.0    0.0    0.0    0.0    
0.0    -0.05    -0.05    -0.05    -0.05    
-0.05    -0.05    -0.05    -0.05    -0.05    
-0.05    -0.05    -0.05    -0.1    -0.1    
-0.1    -0.1    -0.1    -0.1    -0.1    
-0.1    -0.1    -0.1    -0.1    -0.1    
-0.15    -0.15    -0.15    -0.15    -0.15    
-0.15    -0.15    -0.15    -0.15    -0.15    
-0.15    -0.15    -0.15    -0.15    -0.2    
-0.2    -0.2    -0.2    -0.2    -0.2    
-0.2    -0.2    -0.2    -0.2    -0.2    
-0.2    -0.2    -0.2    -0.25    -0.25    
-0.25    -0.25    -0.25    -0.25    -0.25    
-0.25    -0.25    -0.25    -0.25    -0.25    
-0.25    -0.25    -0.3    -0.3    -0.3    
-0.3    -0.3    -0.3    -0.3    -0.3    
-0.3    -0.3    -0.3    -0.3    -0.3    
-0.3    -0.35    -0.35    -0.35    -0.35    
-0.35    -0.35    -0.35    -0.35    -0.35    
-0.35    -0.35    -0.35    -0.35    -0.35    
-0.4    -0.4    -0.4    -0.4    -0.4    
-0.4    -0.4    -0.4    -0.4    -0.4    
-0.4    -0.4    -0.4    -0.4    -0.45    
-0.45    -0.45    -0.45    -0.45    -0.45    
-0.45    -0.45    -0.45    -0.45    -0.45    
-0.45    -0.45    -0.45    -0.5    -0.5    
-0.5    -0.5    -0.5    -0.5    -0.5    
-0.5    -0.5    -0.5    -0.5    -0.5    
-0.5    -0.5    0.0    0.0    0.0    
-0.05    -0.05    -0.05    -0.05    -0.05    
-0.05    -0.1    -0.1    -0.1    -0.1    
-0.1    -0.1    -0.15    -0.15    -0.15    
-0.15    -0.15    -0.15    -0.15    -0.2    
-0.2    -0.2    -0.2    -0.2    -0.2    
-0.2    -0.25    -0.25    -0.25    -0.25    
-0.25    -0.25    -0.25    -0.3    -0.3    
-0.3    -0.3    -0.3    -0.3    -0.3    
-0.35    -0.35    -0.35    -0.35    -0.35    
-0.35    -0.35    -0.4    -0.4    -0.4    
-0.4    -0.4    -0.4    -0.4    -0.45    
-0.45    -0.45    -0.45    -0.45    -0.45    
-0.45    -0.5    -0.5    -0.5    -0.5    
-0.5    -0.5    -0.5    0.0    0.0    
0.0    -0.05    -0.05    -0.05    -0.05    
-0.05    -0.05    -0.1    -0.1    -0.1    
-0.1    -0.1    -0.1    -0.15    -0.15    
-0.15    -0.15    -0.15    -0.15    -0.15    
-0.2    -0.2    -0.2    -0.2    -0.2    
-0.2    -0.2    -0.25    -0.25    -0.25    
-0.25    -0.25    -0.25    -0.25    -0.3    
-0.3    -0.3    -0.3    -0.3    -0.3    
-0.3    -0.35    -0.35    -0.35    -0.35    
-0.35    -0.35    -0.35    -0.4    -0.4    
-0.4    -0.4    -0.4    -0.4    -0.4    
-0.45    -0.45    -0.45    -0.45    -0.45    
-0.45    -0.45    -0.5    -0.5    -0.5    
-0.5    -0.5    -0.5    -0.5    0.0    
0.0    0.0    -0.05    -0.05    -0.05    
-0.05    -0.05    -0.05    -0.1    -0.1    
-0.1    -0.1    -0.1    -0.1    -0.15    
-0.15    -0.15    -0.15    -0.15    -0.15    
-0.15    -0.2    -0.2    -0.2    -0.2    
-0.2    -0.2    -0.2    -0.25    -0.25    
-0.25    -0.25    -0.25    -0.25    -0.25    
-0.3    -0.3    -0.3    -0.3    -0.3    
-0.3    -0.3    -0.35    -0.35    -0.35    
-0.35    -0.35    -0.35    -0.35    -0.4    
-0.4    -0.4    -0.4    -0.4    -0.4    
-0.4    -0.45    -0.45    -0.45    -0.45    
-0.45    -0.45    -0.45    -0.5    -0.5    
-0.5    -0.5    -0.5    -0.5    -0.5    
0.0    0.0    0.0    -0.05    -0.05    
-0.05    -0.05    -0.1    -0.1    -0.1    
-0.1    -0.1    -0.1    -0.15    -0.15    
-0.15    -0.15    -0.15    -0.15    -0.15    
-0.2    -0.2    -0.2    -0.2    -0.2    
-0.2    -0.2    -0.25    -0.25    -0.25    
-0.25    -0.25    -0.25    -0.25    -0.3    
-0.3    -0.3    -0.3    -0.3    -0.3    
-0.3    -0.35    -0.35    -0.35    -0.35    
-0.35    -0.35    -0.35    -0.4    -0.4    
-0.4    -0.4    -0.4    -0.4    -0.4    
-0.45    -0.45    -0.45    -0.45    -0.45    
-0.45    -0.45    -0.5    -0.5    -0.5    
-0.5    -0.5    -0.5    -0.5    0.0    
0.0    0.0    -0.05    -0.05    -0.05    
-0.05    -0.1    -0.1    -0.1    -0.1    
-0.1    -0.1    -0.15    -0.15    -0.15    
-0.15    -0.15    -0.15    -0.15    -0.2    
-0.2    -0.2    -0.2    -0.2    -0.2    
-0.2    -0.25    -0.25    -0.25    -0.25    
-0.25    -0.25    -0.25    -0.3    -0.3    
-0.3    -0.3    -0.3    -0.3    -0.3    
-0.35    -0.35    -0.35    -0.35    -0.35    
-0.35    -0.35    -0.4    -0.4    -0.4    
-0.4    -0.4    -0.4    -0.4    -0.45    
-0.45    -0.45    -0.45    -0.45    -0.45    
-0.45    -0.5    -0.5    -0.5    -0.5    
-0.5    -0.5    -0.5    0.0    0.0    
0.0    -0.05    -0.05    -0.05    -0.1    
-0.1    -0.1    -0.1    -0.1    -0.15    
-0.15    -0.15    -0.15    -0.15    -0.15    
-0.15    -0.2    -0.2    -0.2    -0.2    
-0.2    -0.2    -0.2    -0.25    -0.25    
-0.25    -0.25    -0.25    -0.25    -0.25    
-0.3    -0.3    -0.3    -0.3    -0.3    
-0.3    -0.3    -0.35    -0.35    -0.35    
-0.35    -0.35    -0.35    -0.35    -0.4    
-0.4    -0.4    -0.4    -0.4    -0.4    
-0.4    -0.45    -0.45    -0.45    -0.45    
-0.45    -0.45    -0.45    -0.5    -0.5    
-0.5    -0.5    -0.5    -0.5    -0.5    
0.0    0.0    0.0    -0.05    -0.05    
-0.05    -0.1    -0.1    -0.1    -0.1    
-0.1    -0.15    -0.15    -0.15    -0.15    
-0.15    -0.15    -0.2    -0.2    -0.2    
-0.2    -0.2    -0.2    -0.25    -0.25    
-0.25    -0.25    -0.25    -0.25    -0.3    
-0.3    -0.3    -0.3    -0.3    -0.3    
-0.35    -0.35    -0.35    -0.35    -0.35    
-0.35    -0.4    -0.4    -0.4    -0.4    
-0.4    -0.4    -0.45    -0.45    -0.45    
-0.45    -0.45    -0.45    -0.5    -0.5    
-0.5    -0.5    -0.5    -0.5    0.0    
0.0    0.0    -0.05    -0.05    -0.05    
-0.1    -0.1    -0.1    -0.1    -0.1    
-0.15    -0.15    -0.15    -0.15    -0.15    
-0.15    -0.2    -0.2    -0.2    -0.2    
-0.2    -0.2    -0.25    -0.25    -0.25    
-0.25    -0.25    -0.25    -0.3    -0.3    
-0.3    -0.3    -0.3    -0.3    -0.35    
-0.35    -0.35    -0.35    -0.35    -0.35    
-0.4    -0.4    -0.4    -0.4    -0.4    
-0.4    -0.45    -0.45    -0.45    -0.45    
-0.45    -0.45    -0.5    -0.5    -0.5    
-0.5    -0.5    -0.5    0.0    0.0    
0.0    -0.05    -0.05    -0.05    -0.1    
-0.1    -0.1    -0.1    -0.1    -0.15    
-0.15    -0.15    -0.15    -0.15    -0.15    
-0.2    -0.2    -0.2    -0.2    -0.2    
-0.2    -0.25    -0.25    -0.25    -0.25    
-0.25    -0.25    -0.3    -0.3    -0.3    
-0.3    -0.3    -0.3    -0.35    -0.35    
-0.35    -0.35    -0.35    -0.35    -0.4    
-0.4    -0.4    -0.4    -0.4    -0.4    
-0.45    -0.45    -0.45    -0.45    -0.45    
-0.45    -0.5    -0.5    -0.5    -0.5    
-0.5    -0.5    
393.565572694    394.935343331    395.039773812    384.99371317    393.690896183    
380.962327239    396.9387507    397.611904583    397.72258109    392.907866035    
396.098775998    397.077577547    390.91376627    396.270594303    388.429312841    
395.24979858    385.303602604    393.944234456    381.333989469    397.887358996    
393.236684633    397.285041824    391.32607491    396.528627416    388.939380582    
395.567234349    385.926753134    394.330306303    382.08515284    398.104340623    
393.726204343    397.559557115    391.942171692    396.872243701    389.705277735    
395.993513352    386.868394785    392.71670973    394.854442013    383.229523576    
393.354501044    378.503184752    398.370373846    394.37075266    397.897993759    
392.757279899    397.299001272    390.725006749    396.528125554    388.132547843    
395.520293726    384.782479664    394.178530291    380.390728641    398.680661358    
395.160928529    398.294990015    393.762034066    397.803465629    391.991180258    
397.166643949    389.717426579    396.326647668    386.754310551    395.195111415    
382.827557132    399.028458852    396.082450144    398.742359015    394.940450346    
398.376083655    393.487540506    397.898637086    391.6096317    397.26363682    
389.140847765    396.398520624    385.831128239    399.404978534    397.115267807    
399.228795846    396.268184733    399.002467093    395.18565676    398.706056829    
393.778038347    398.309255316    391.912397046    397.7636475    389.383360876    
399.799596921    398.233285045    399.740085236    397.711681041    399.663493276    
397.042840045    399.562926784    396.16911152    399.427807337    395.003638723    
399.241021283    393.409416091    399.404978534    399.228795846    399.002467093    
398.706056828    398.309255316    397.763647501    375.592640556    369.116163643    
388.415245185    385.173311219    381.145699471    376.098073274    369.721659125    
388.952766105    385.846868792    381.978270617    377.114189443    370.944990939    
389.752882831    386.853151481    383.228085201    378.649032089    372.807623146    
365.27858471    390.806216658    388.184157139    384.891511079    380.708465953    
375.333325383    368.341983045    392.097289195    389.82437163    386.956072394    
383.288763591    378.537258465    372.291298583    393.602665435    391.747502622    
389.394858353    386.367293065    382.410971397    377.15134974    395.289532609    
393.913693435    392.161253278    389.892795979    386.90485975    382.889625615    
397.115267811    396.268184738    395.185656765    393.778038353    391.912397052    
389.383360883    399.028458852    398.742359016    398.376083657    397.898637088    
397.263636823    396.398520626    367.025300059    358.416310642    384.25926198    
379.882333718    374.465276236    367.710648533    359.236083654    384.990360947    
380.797638491    375.595400248    369.088016612    360.891568002    386.078435756    
382.164743259    377.291268206    371.16743401    363.410282212    353.507604427    
387.51053633    383.972412106    379.547279046    373.955615743    366.822142044    
357.634337963    389.265408476    386.199174384    382.345749461    377.446065105    
371.144881297    362.944907891    391.311016991    388.808976542    385.649488261    
381.60673737    376.364219588    369.466874739    393.602665439    391.74750263    
389.394858364    386.367293074    382.410971403    377.151349745    396.082450149    
394.940450355    393.487540517    391.609631712    389.140847777    385.831128246    
398.680661358    398.294990018    397.803465632    397.166643952    396.326647672    
395.195111417    359.506083028    349.12366792    368.556757917    360.351141466    
350.132705174    381.449559516    376.306124098    369.951931352    362.048859428    
352.169336536    382.795688008    377.995553529    372.044667455    364.610389195    
355.2653217    343.456355664    384.566975418    380.228582491    374.827117684    
368.042308314    359.454409673    348.507501044    386.736837398    382.97812811    
378.276417592    372.334643184    364.75469469    354.994943031    389.265408469    
386.199174383    382.345749468    377.446065114    371.144881303    362.944907897    
392.097289194    389.824371638    386.956072405    383.288763604    378.537258477    
372.291298588    395.160928531    393.762034074    391.99118027    389.717426594    
386.754310567    382.827557144    398.370373845    397.89799376    397.299001275    
396.528125558    395.52029373    394.178530295    353.170569418    341.378764669    
363.537770729    354.151794935    342.548293113    378.408497748    372.467370451    
365.159779127    356.122341438    344.907630096    379.976935797    374.433515948    
367.591744788    359.093744303    348.491156992    335.222082588    382.040200888    
377.031308152    370.823451249    363.071674449    353.334490271    341.044133893    
384.566975396    380.228582476    374.82711768    368.042308315    359.454409674    
348.507501052    387.510536305    383.972412091    379.547279044    373.95561575    
366.822142052    357.63433797    390.806216642    388.184157132    384.891511083    
380.708465961    375.333325395    368.341983055    394.370752652    392.7572799    
390.725006758    388.132547859    384.782479682    380.39072866    398.104340617    
397.559557114    396.872243705    395.993513358    394.854442019    393.354501048    
348.088992972    335.230039924    349.180653777    336.529040306    369.346074048    
361.287516244    351.372240771    339.148331701    377.674608227    371.538183088    
363.995310677    354.675158978    343.123673083    328.787902288    379.976935747    
374.433515922    367.591744776    359.093744285    348.491156978    335.222082524    
382.795687939    377.995553489    372.044667438    364.610389187    355.265321691    
343.456355627    386.078435689    382.164743217    377.291268188    371.167434001    
363.41028221    353.507604398    389.752882777    386.853151452    383.22808519    
378.649032086    372.807623149    365.278584699    393.726204311    391.942171679    
389.70527774    386.868394797    383.229523593    378.503184754    397.887358981    
397.285041818    396.528627418    395.567234353    394.330306308    392.716709727    
344.28590754    330.668437422    345.461004938    332.064796562    366.982197977    
358.370844062    347.819442606    334.879320371    369.346073962    361.287516246    
351.372240765    339.148331672    324.078085711    372.467370399    365.159779129    
356.122341411    344.907630049    330.966320839    376.306124045    369.951931338    
362.048859399    352.1693365    339.769934887    380.797638435    375.595400217    
369.088016578    360.891567968    350.500698079    385.846868741    381.978270594    
377.114189422    370.944990918    363.049753075    391.326074881    388.939380577    
385.926753137    382.085152842    377.131425506    397.077577532    396.270594299    
395.249798579    393.944234455    392.25348729    341.760123308    327.659037447    
342.991033676    329.120282367    365.397834153    356.424195782    345.461004891    
332.064796451    367.877163747    359.480849031    349.180653734    336.529040163    
321.002126742    371.150231872    363.537770698    354.151794883    342.548292955    
328.189823381    375.17469133    368.55675786    360.351141401    350.132705028    
337.367708234    379.882333616    374.465276183    367.710648461    359.236083525    
348.54361031    385.173311128    381.145699422    376.098073228    369.721659044    
361.600653689    390.913766207    388.429312814    385.303602589    381.333989431    
376.240298817    396.938750673    396.098775987    395.039773803    393.690896164    
391.952702805    340.501270958    326.165384643    341.760123095    327.659037225    
364.603631594    355.450979051    344.285907282    330.66843708    367.140938813    
358.577794153    348.08899271    335.230039566    319.484964118    370.490187623    
362.727211521    353.170569172    341.378764304    326.821252713    374.607812046    
367.859736302    359.506082812    349.123667585    336.184475822    379.423822926    
373.900817542    367.025299874    358.416310373    347.580337713    384.835953782    
380.729952627    375.592640434    369.116163451    360.887880483    390.707281856    
388.174652128    384.993713095    380.962327126    375.802197139    396.869230461    
396.013000307    394.935343302    393.565572649    391.804869357    
0.025    -0.025    -0.025    -0.025    0.025    
0.025    -0.125    -0.175    -0.175    -0.175    
-0.075    -0.125    -0.125    -0.075    -0.075    
-0.025    -0.025    0.025    0.025    -0.175    
-0.175    -0.125    -0.125    -0.075    -0.075    
-0.025    -0.025    0.025    0.025    -0.175    
-0.175    -0.125    -0.125    -0.075    -0.075    
-0.025    -0.025    0.075    0.025    0.025    
0.075    0.075    -0.175    -0.175    -0.125    
-0.125    -0.075    -0.075    -0.025    -0.025    
0.025    0.025    0.075    0.075    -0.175    
-0.175    -0.125    -0.125    -0.075    -0.075    
-0.025    -0.025    0.025    0.025    0.075    
0.075    -0.175    -0.175    -0.125    -0.125    
-0.075    -0.075    -0.025    -0.025    0.025    
0.025    0.075    0.075    -0.175    -0.175    
-0.125    -0.125    -0.075    -0.075    -0.025    
-0.025    0.025    0.025    0.075    0.075    
-0.175    -0.175    -0.125    -0.125    -0.075    
-0.075    -0.025    -0.025    0.025    0.025    
0.075    0.075    -0.175    -0.125    -0.075    
-0.025    0.025    0.075    -0.025    0.025    
-0.175    -0.125    -0.075    -0.025    0.025    
-0.175    -0.125    -0.075    -0.025    0.025    
-0.175    -0.125    -0.075    -0.025    0.025    
0.075    -0.175    -0.125    -0.075    -0.025    
0.025    0.075    -0.175    -0.125    -0.075    
-0.025    0.025    0.075    -0.175    -0.125    
-0.075    -0.025    0.025    0.075    -0.175    
-0.125    -0.075    -0.025    0.025    0.075    
-0.175    -0.125    -0.075    -0.025    0.025    
0.075    -0.175    -0.125    -0.075    -0.025    
0.025    0.075    -0.025    0.025    -0.175    
-0.125    -0.075    -0.025    0.025    -0.175    
-0.125    -0.075    -0.025    0.025    -0.175    
-0.125    -0.075    -0.025    0.025    0.075    
-0.175    -0.125    -0.075    -0.025    0.025    
0.075    -0.175    -0.125    -0.075    -0.025    
0.025    0.075    -0.175    -0.125    -0.075    
-0.025    0.025    0.075    -0.175    -0.125    
-0.075    -0.025    0.025    0.075    -0.175    
-0.125    -0.075    -0.025    0.025    0.075    
-0.175    -0.125    -0.075    -0.025    0.025    
0.075    -0.025    0.025    -0.075    -0.025    
0.025    -0.175    -0.125    -0.075    -0.025    
0.025    -0.175    -0.125    -0.075    -0.025    
0.025    0.075    -0.175    -0.125    -0.075    
-0.025    0.025    0.075    -0.175    -0.125    
-0.075    -0.025    0.025    0.075    -0.175    
-0.125    -0.075    -0.025    0.025    0.075    
-0.175    -0.125    -0.075    -0.025    0.025    
0.075    -0.175    -0.125    -0.075    -0.025    
0.025    0.075    -0.175    -0.125    -0.075    
-0.025    0.025    0.075    -0.025    0.025    
-0.075    -0.025    0.025    -0.175    -0.125    
-0.075    -0.025    0.025    -0.175    -0.125    
-0.075    -0.025    0.025    0.075    -0.175    