Title = " tecplot file for 2D Cavity problem " 
variables = "x", "y", "z", "velX", "cellCentroidY" 
Zone T = "nmesh0" N = 723 E = 500 DATAPACKING = BLOCK, VARLOCATION = ([4-5]=CELLCENTERED), ZONETYPE=FEBRICK
0.45    0.45    0.5    0.5    0.45    
0.5    0.45    0.5    0.45    0.5    
0.45    0.5    0.45    0.5    0.45    
0.5    0.45    0.5    0.45    0.5    
0.45    0.5    0.45    0.5    0.45    
0.5    0.45    0.5    0.45    0.5    
0.45    0.5    0.45    0.5    0.45    
0.5    0.45    0.5    0.45    0.5    
0.45    0.5    0.45    0.5    0.45    
0.5    0.45    0.5    0.45    0.5    
0.45    0.5    0.45    0.5    0.45    
0.5    0.45    0.5    0.45    0.5    
0.45    0.5    0.45    0.5    0.45    
0.5    0.45    0.5    0.45    0.5    
0.45    0.5    0.45    0.5    0.45    
0.5    0.45    0.5    0.45    0.5    
0.45    0.5    0.45    0.5    0.45    
0.5    0.45    0.5    0.45    0.5    
0.45    0.5    0.45    0.5    0.45    
0.5    0.45    0.5    0.45    0.5    
0.45    0.5    0.45    0.5    0.45    
0.5    0.45    0.5    0.45    0.5    
0.45    0.5    0.45    0.5    0.45    
0.5    0.45    0.5    0.45    0.5    
0.45    0.5    0.45    0.5    0.45    
0.4    0.4    0.4    0.4    0.4    
0.4    0.4    0.4    0.4    0.4    
0.4    0.4    0.4    0.4    0.4    
0.4    0.4    0.4    0.4    0.4    
0.4    0.4    0.4    0.4    0.4    
0.4    0.4    0.4    0.4    0.4    
0.4    0.4    0.4    0.4    0.4    
0.4    0.4    0.4    0.4    0.4    
0.4    0.4    0.4    0.4    0.4    
0.4    0.4    0.4    0.4    0.4    
0.4    0.4    0.4    0.4    0.4    
0.4    0.4    0.4    0.4    0.4    
0.4    0.4    0.4    0.35    0.35    
0.35    0.35    0.35    0.35    0.35    
0.35    0.35    0.35    0.35    0.35    
0.35    0.35    0.35    0.35    0.35    
0.35    0.35    0.35    0.35    0.35    
0.35    0.35    0.35    0.35    0.35    
0.35    0.35    0.35    0.35    0.35    
0.35    0.35    0.35    0.35    0.35    
0.35    0.35    0.35    0.35    0.35    
0.35    0.35    0.35    0.35    0.35    
0.35    0.35    0.35    0.35    0.35    
0.35    0.35    0.35    0.35    0.35    
0.35    0.35    0.35    0.35    0.35    
0.35    0.3    0.3    0.3    0.3    
0.3    0.3    0.3    0.3    0.3    
0.3    0.3    0.3    0.3    0.3    
0.3    0.3    0.3    0.3    0.3    
0.3    0.3    0.3    0.3    0.3    
0.3    0.3    0.3    0.3    0.3    
0.3    0.3    0.3    0.3    0.3    
0.3    0.3    0.3    0.3    0.3    
0.3    0.3    0.3    0.3    0.3    
0.3    0.3    0.3    0.3    0.3    
0.3    0.3    0.3    0.3    0.3    
0.3    0.3    0.3    0.3    0.3    
0.3    0.3    0.3    0.3    0.25    
0.25    0.25    0.25    0.25    0.25    
0.25    0.25    0.25    0.25    0.25    
0.25    0.25    0.25    0.25    0.25    
0.25    0.25    0.25    0.25    0.25    
0.25    0.25    0.25    0.25    0.25    
0.25    0.25    0.25    0.25    0.25    
0.25    0.25    0.25    0.25    0.25    
0.25    0.25    0.25    0.25    0.25    
0.25    0.25    0.25    0.25    0.25    
0.25    0.25    0.25    0.25    0.25    
0.25    0.25    0.25    0.25    0.25    
0.25    0.25    0.25    0.25    0.25    
0.25    0.25    0.2    0.2    0.2    
0.2    0.2    0.2    0.2    0.2    
0.2    0.2    0.2    0.2    0.2    
0.2    0.2    0.2    0.2    0.2    
0.2    0.2    0.2    0.2    0.2    
0.2    0.2    0.2    0.2    0.2    
0.2    0.2    0.2    0.2    0.2    
0.2    0.2    0.2    0.2    0.2    
0.2    0.2    0.2    0.2    0.2    
0.2    0.2    0.2    0.2    0.2    
0.2    0.2    0.2    0.2    0.2    
0.2    0.2    0.2    0.2    0.2    
0.2    0.2    0.2    0.2    0.2    
0.2    0.2    0.2    0.2    0.2    
0.2    0.15    0.15    0.15    0.15    
0.15    0.15    0.15    0.15    0.15    
0.15    0.15    0.15    0.15    0.15    
0.15    0.15    0.15    0.15    0.15    
0.15    0.15    0.15    0.15    0.15    
0.15    0.15    0.15    0.15    0.15    
0.15    0.15    0.15    0.15    0.15    
0.15    0.15    0.15    0.15    0.15    
0.15    0.15    0.15    0.15    0.15    
0.15    0.15    0.15    0.15    0.15    
0.15    0.15    0.15    0.15    0.15    
0.15    0.15    0.15    0.15    0.15    
0.15    0.15    0.15    0.15    0.15    
0.15    0.15    0.15    0.15    0.15    
0.1    0.1    0.1    0.1    0.1    
0.1    0.1    0.1    0.1    0.1    
0.1    0.1    0.1    0.1    0.1    
0.1    0.1    0.1    0.1    0.1    
0.1    0.1    0.1    0.1    0.1    
0.1    0.1    0.1    0.1    0.1    
0.1    0.1    0.1    0.1    0.1    
0.1    0.1    0.1    0.1    0.1    
0.1    0.1    0.1    0.1    0.1    
0.1    0.1    0.1    0.1    0.1    
0.1    0.1    0.1    0.1    0.1    
0.1    0.1    0.1    0.1    0.1    
0.1    0.1    0.1    0.1    0.1    
0.1    0.1    0.1    0.1    0.05    
0.05    0.05    0.05    0.05    0.05    
0.05    0.05    0.05    0.05    0.05    
0.05    0.05    0.05    0.05    0.05    
0.05    0.05    0.05    0.05    0.05    
0.05    0.05    0.05    0.05    0.05    
0.05    0.05    0.05    0.05    0.05    
0.05    0.05    0.05    0.05    0.05    
0.05    0.05    0.05    0.05    0.05    
0.05    0.05    0.05    0.05    0.05    
0.05    0.05    0.05    0.05    0.05    
0.05    0.05    0.05    0.05    0.05    
0.05    0.05    0.05    0.05    0.05    
0.05    0.05    0.05    0.05    0.05    
0.05    0.05    0.05    0.0    0.0    
0.0    0.0    0.0    0.0    0.0    
0.0    0.0    2.7755575616e-17    2.7755575616e-17    2.7755575616e-17    
0.0    2.7755575616e-17    2.7755575616e-17    0.0    -2.7755575616e-17    
0.0    0.0    2.7755575616e-17    0.0    -2.7755575616e-17    
0.0    0.0    0.0    -2.7755575616e-17    0.0    
0.0    2.7755575616e-17    0.0    -2.7755575616e-17    0.0    
0.0    0.0    -2.7755575616e-17    0.0    0.0    
2.7755575616e-17    0.0    -2.7755575616e-17    0.0    0.0    
0.0    -2.7755575616e-17    0.0    0.0    2.7755575616e-17    
0.0    -2.7755575616e-17    0.0    0.0    0.0    
-2.7755575616e-17    0.0    0.0    2.7755575616e-17    0.0    
-2.7755575616e-17    0.0    0.0    0.0    -1.3877787808e-17    
0.0    6.9388939039e-18    2.0816681712e-17    0.0    -2.0816681712e-17    
-1.0408340856e-17    0.0    0.5    
0.15    0.1    0.1    0.15    0.2    
0.2    0.25    0.25    0.3    0.3    
0.35    0.35    0.4    0.4    0.45    
0.45    0.5    0.5    0.1    0.1    
0.15    0.15    0.2    0.2    0.25    
0.25    0.3    0.3    0.35    0.35    
0.4    0.4    0.45    0.45    0.5    
0.5    0.1    0.1    0.15    0.15    
0.2    0.2    0.25    0.25    0.3    
0.3    0.35    0.35    0.4    0.4    
0.45    0.45    0.5    0.5    0.1    
0.1    0.15    0.15    0.2    0.2    
0.25    0.25    0.3    0.3    0.35    
0.35    0.4    0.4    0.45    0.45    
0.5    0.5    0.1    0.1    0.15    
0.15    0.2    0.2    0.25    0.25    
0.3    0.3    0.35    0.35    0.4    
0.4    0.45    0.45    0.5    0.5    
0.1    0.1    0.15    0.15    0.2    
0.2    0.25    0.25    0.3    0.3    
0.35    0.35    0.4    0.4    0.45    
0.45    0.5    0.5    0.1    0.1    
0.15    0.15    0.2    0.2    0.25    
0.25    0.3    0.3    0.35    0.35    
0.4    0.4    0.45    0.45    0.5    
0.15    0.1    0.2    0.25    0.3    
0.35    0.4    0.45    0.5    0.1    
0.15    0.2    0.25    0.3    0.35    
0.4    0.45    0.5    0.1    0.15    
0.2    0.25    0.3    0.35    0.4    
0.45    0.5    0.1    0.15    0.2    
0.25    0.3    0.35    0.4    0.45    
0.5    0.1    0.15    0.2    0.25    
0.3    0.35    0.4    0.45    0.5    
0.1    0.15    0.2    0.25    0.3    
0.35    0.4    0.45    0.5    0.1    
0.15    0.2    0.25    0.3    0.35    
0.4    0.45    0.5    0.15    0.1    
0.2    0.25    0.3    0.35    0.4    
0.45    0.5    0.1    0.15    0.2    
0.25    0.3    0.35    0.4    0.45    
0.5    0.1    0.15    0.2    0.25    
0.3    0.35    0.4    0.45    0.5    
0.1    0.15    0.2    0.25    0.3    
0.35    0.4    0.45    0.5    0.1    
0.15    0.2    0.25    0.3    0.35    
0.4    0.45    0.5    0.1    0.15    
0.2    0.25    0.3    0.35    0.4    
0.45    0.5    0.1    0.15    0.2    
0.25    0.3    0.35    0.4    0.45    
0.5    0.15    0.1    0.2    0.25    
0.3    0.35    0.4    0.45    0.5    
0.1    0.15    0.2    0.25    0.3    
0.35    0.4    0.45    0.5    0.1    
0.15    0.2    0.25    0.3    0.35    
0.4    0.45    0.5    0.1    0.15    
0.2    0.25    0.3    0.35    0.4    
0.45    0.5    0.1    0.15    0.2    
0.25    0.3    0.35    0.4    0.45    
0.5    0.1    0.15    0.2    0.25    
0.3    0.35    0.4    0.45    0.5    
0.1    0.15    0.2    0.25    0.3    
0.35    0.4    0.45    0.5    0.15    
0.1    0.2    0.25    0.3    0.35    
0.4    0.45    0.5    0.1    0.15    
0.2    0.25    0.3    0.35    0.4    
0.45    0.5    0.1    0.15    0.2    
0.25    0.3    0.35    0.4    0.45    
0.5    0.1    0.15    0.2    0.25    
0.3    0.35    0.4    0.45    0.5    
0.1    0.15    0.2    0.25    0.3    
0.35    0.4    0.45    0.5    0.1    
0.15    0.2    0.25    0.3    0.35    
0.4    0.45    0.5    0.1    0.15    
0.2    0.25    0.3    0.35    0.4    
0.45    0.5    0.15    0.1    0.2    
0.25    0.3    0.3    0.25    0.35    
0.35    0.4    0.4    0.45    0.45    
0.5    0.5    0.1    0.15    0.2    
0.25    0.3    0.35    0.4    0.45    
0.5    0.1    0.15    0.2    0.25    
0.3    0.35    0.4    0.45    0.5    
0.1    0.15    0.2    0.25    0.3    
0.35    0.4    0.45    0.5    0.1    
0.15    0.2    0.25    0.3    0.35    
0.4    0.45    0.5    0.1    0.15    
0.2    0.25    0.3    0.35    0.4    
0.45    0.5    0.1    0.15    0.2    
0.25    0.3    0.35    0.4    0.45    
0.5    0.3    0.25    0.35    0.4    
0.45    0.5    0.15    0.1    0.2    
0.25    0.3    0.35    0.4    0.45    
0.5    0.1    0.15    0.2    0.25    
0.3    0.35    0.4    0.45    0.5    
0.1    0.15    0.2    0.25    0.3    
0.35    0.4    0.45    0.5    0.1    
0.15    0.2    0.25    0.3    0.35    
0.4    0.45    0.5    0.1    0.15    
0.2    0.25    0.3    0.35    0.4    
0.45    0.5    0.1    0.15    0.2    
0.25    0.3    0.35    0.4    0.45    
0.5    0.1    0.15    0.2    0.25    
0.3    0.35    0.4    0.45    0.5    
0.3    0.25    0.35    0.4    0.45    
0.5    0.15    0.1    0.2    0.25    
0.3    0.35    0.4    0.45    0.5    
0.1    0.15    0.2    0.25    0.3    
0.35    0.4    0.45    0.5    0.1    
0.15    0.2    0.25    0.3    0.35    
0.4    0.45    0.5    0.1    0.15    
0.2    0.25    0.3    0.35    0.4    
0.45    0.5    0.1    0.15    0.2    
0.25    0.3    0.35    0.4    0.45    
0.5    0.1    0.15    0.2    0.25    
0.3    0.35    0.4    0.45    0.5    
0.1    0.15    0.2    0.25    0.3    
0.35    0.4    0.45    0.5    0.3    
0.25    0.35    0.4    0.45    0.5    
0.15    0.1    0.2    0.25    0.3    
0.35    0.4    0.45    0.5    0.1    
0.15    0.2    0.25    0.3    0.35    
0.4    0.45    0.5    0.1    0.15    
0.2    0.25    0.3    0.35    0.4    
0.45    0.5    0.1    0.15    0.2    
0.25    0.3    0.35    0.4    0.45    
0.5    0.1    0.15    0.2    0.25    
0.3    0.35    0.4    0.45    0.5    
0.1    0.15    0.2    0.25    0.3    
0.35    0.4    0.45    0.5    0.1    
0.15    0.2    0.25    0.3    0.35    
0.4    0.45    0.5    0.3    0.25    
0.35    0.4    0.45    0.5    0.15    
0.1    0.2    0.25    0.3    0.35    
0.4    0.45    0.5    0.1    0.15    
0.2    0.25    0.3    0.35    0.4    
0.45    0.5    0.1    0.15    0.2    
0.25    0.3    0.35    0.4    0.45    
0.5    0.1    0.15    0.2    0.25    
0.3    0.35    0.4    0.45    0.5    
0.1    0.15    0.2    0.25    0.3    
0.35    0.4    0.45    0.5    0.1    
0.15    0.2    0.25    0.3    0.35    
0.4    0.45    0.5    0.1    0.15    
0.2    0.25    0.3    0.35    0.4    
0.45    0.5    0.5    
-0.2    -0.2    -0.2    -0.2    -0.2    
-0.2    -0.2    -0.2    -0.2    -0.2    
-0.2    -0.2    -0.2    -0.2    -0.2    
-0.2    -0.2    -0.2    -0.25    -0.25    
-0.25    -0.25    -0.25    -0.25    -0.25    
-0.25    -0.25    -0.25    -0.25    -0.25    
-0.25    -0.25    -0.25    -0.25    -0.25    
-0.25    -0.3    -0.3    -0.3    -0.3    
-0.3    -0.3    -0.3    -0.3    -0.3    
-0.3    -0.3    -0.3    -0.3    -0.3    
-0.3    -0.3    -0.3    -0.3    -0.35    
-0.35    -0.35    -0.35    -0.35    -0.35    
-0.35    -0.35    -0.35    -0.35    -0.35    
-0.35    -0.35    -0.35    -0.35    -0.35    
-0.35    -0.35    -0.4    -0.4    -0.4    
-0.4    -0.4    -0.4    -0.4    -0.4    
-0.4    -0.4    -0.4    -0.4    -0.4    
-0.4    -0.4    -0.4    -0.4    -0.4    
-0.45    -0.45    -0.45    -0.45    -0.45    
-0.45    -0.45    -0.45    -0.45    -0.45    
-0.45    -0.45    -0.45    -0.45    -0.45    
-0.45    -0.45    -0.45    -0.5    -0.5    
-0.5    -0.5    -0.5    -0.5    -0.5    
-0.5    -0.5    -0.5    -0.5    -0.5    
-0.5    -0.5    -0.5    -0.5    -0.5    
-0.2    -0.2    -0.2    -0.2    -0.2    
-0.2    -0.2    -0.2    -0.2    -0.25    
-0.25    -0.25    -0.25    -0.25    -0.25    
-0.25    -0.25    -0.25    -0.3    -0.3    
-0.3    -0.3    -0.3    -0.3    -0.3    
-0.3    -0.3    -0.35    -0.35    -0.35    
-0.35    -0.35    -0.35    -0.35    -0.35    
-0.35    -0.4    -0.4    -0.4    -0.4    
-0.4    -0.4    -0.4    -0.4    -0.4    
-0.45    -0.45    -0.45    -0.45    -0.45    
-0.45    -0.45    -0.45    -0.45    -0.5    
-0.5    -0.5    -0.5    -0.5    -0.5    
-0.5    -0.5    -0.5    -0.2    -0.2    
-0.2    -0.2    -0.2    -0.2    -0.2    
-0.2    -0.2    -0.25    -0.25    -0.25    
-0.25    -0.25    -0.25    -0.25    -0.25    
-0.25    -0.3    -0.3    -0.3    -0.3    
-0.3    -0.3    -0.3    -0.3    -0.3    
-0.35    -0.35    -0.35    -0.35    -0.35    
-0.35    -0.35    -0.35    -0.35    -0.4    
-0.4    -0.4    -0.4    -0.4    -0.4    
-0.4    -0.4    -0.4    -0.45    -0.45    
-0.45    -0.45    -0.45    -0.45    -0.45    
-0.45    -0.45    -0.5    -0.5    -0.5    
-0.5    -0.5    -0.5    -0.5    -0.5    
-0.5    -0.2    -0.2    -0.2    -0.2    
-0.2    -0.2    -0.2    -0.2    -0.2    
-0.25    -0.25    -0.25    -0.25    -0.25    
-0.25    -0.25    -0.25    -0.25    -0.3    
-0.3    -0.3    -0.3    -0.3    -0.3    
-0.3    -0.3    -0.3    -0.35    -0.35    
-0.35    -0.35    -0.35    -0.35    -0.35    
-0.35    -0.35    -0.4    -0.4    -0.4    
-0.4    -0.4    -0.4    -0.4    -0.4    
-0.4    -0.45    -0.45    -0.45    -0.45    
-0.45    -0.45    -0.45    -0.45    -0.45    
-0.5    -0.5    -0.5    -0.5    -0.5    
-0.5    -0.5    -0.5    -0.5    -0.2    
-0.2    -0.2    -0.2    -0.2    -0.2    
-0.2    -0.2    -0.2    -0.25    -0.25    
-0.25    -0.25    -0.25    -0.25    -0.25    
-0.25    -0.25    -0.3    -0.3    -0.3    
-0.3    -0.3    -0.3    -0.3    -0.3    
-0.3    -0.35    -0.35    -0.35    -0.35    
-0.35    -0.35    -0.35    -0.35    -0.35    
-0.4    -0.4    -0.4    -0.4    -0.4    
-0.4    -0.4    -0.4    -0.4    -0.45    
-0.45    -0.45    -0.45    -0.45    -0.45    
-0.45    -0.45    -0.45    -0.5    -0.5    
-0.5    -0.5    -0.5    -0.5    -0.5    
-0.5    -0.5    -0.2    -0.2    -0.2    
-0.2    -0.2    -0.15    -0.15    -0.2    
-0.15    -0.2    -0.15    -0.2    -0.15    
-0.2    -0.15    -0.25    -0.25    -0.25    
-0.25    -0.25    -0.25    -0.25    -0.25    
-0.25    -0.3    -0.3    -0.3    -0.3    
-0.3    -0.3    -0.3    -0.3    -0.3    
-0.35    -0.35    -0.35    -0.35    -0.35    
-0.35    -0.35    -0.35    -0.35    -0.4    
-0.4    -0.4    -0.4    -0.4    -0.4    
-0.4    -0.4    -0.4    -0.45    -0.45    
-0.45    -0.45    -0.45    -0.45    -0.45    
-0.45    -0.45    -0.5    -0.5    -0.5    
-0.5    -0.5    -0.5    -0.5    -0.5    
-0.5    -0.15    -0.15    -0.15    -0.15    
-0.15    -0.15    -0.2    -0.2    -0.2    
-0.2    -0.2    -0.2    -0.2    -0.2    
-0.2    -0.25    -0.25    -0.25    -0.25    
-0.25    -0.25    -0.25    -0.25    -0.25    
-0.3    -0.3    -0.3    -0.3    -0.3    
-0.3    -0.3    -0.3    -0.3    -0.35    
-0.35    -0.35    -0.35    -0.35    -0.35    
-0.35    -0.35    -0.35    -0.4    -0.4    
-0.4    -0.4    -0.4    -0.4    -0.4    
-0.4    -0.4    -0.45    -0.45    -0.45    
-0.45    -0.45    -0.45    -0.45    -0.45    
-0.45    -0.5    -0.5    -0.5    -0.5    
-0.5    -0.5    -0.5    -0.5    -0.5    
-0.15    -0.15    -0.15    -0.15    -0.15    
-0.15    -0.2    -0.2    -0.2    -0.2    
-0.2    -0.2    -0.2    -0.2    -0.2    
-0.25    -0.25    -0.25    -0.25    -0.25    
-0.25    -0.25    -0.25    -0.25    -0.3    
-0.3    -0.3    -0.3    -0.3    -0.3    
-0.3    -0.3    -0.3    -0.35    -0.35    
-0.35    -0.35    -0.35    -0.35    -0.35    
-0.35    -0.35    -0.4    -0.4    -0.4    
-0.4    -0.4    -0.4    -0.4    -0.4    
-0.4    -0.45    -0.45    -0.45    -0.45    
-0.45    -0.45    -0.45    -0.45    -0.45    
-0.5    -0.5    -0.5    -0.5    -0.5    
-0.5    -0.5    -0.5    -0.5    -0.15    
-0.15    -0.15    -0.15    -0.15    -0.15    
-0.2    -0.2    -0.2    -0.2    -0.2    
-0.2    -0.2    -0.2    -0.2    -0.25    
-0.25    -0.25    -0.25    -0.25    -0.25    
-0.25    -0.25    -0.25    -0.3    -0.3    
-0.3    -0.3    -0.3    -0.3    -0.3    
-0.3    -0.3    -0.35    -0.35    -0.35    
-0.35    -0.35    -0.35    -0.35    -0.35    
-0.35    -0.4    -0.4    -0.4    -0.4    
-0.4    -0.4    -0.4    -0.4    -0.4    
-0.45    -0.45    -0.45    -0.45    -0.45    
-0.45    -0.45    -0.45    -0.45    -0.5    
-0.5    -0.5    -0.5    -0.5    -0.5    
-0.5    -0.5    -0.5    -0.15    -0.15    
-0.15    -0.15    -0.15    -0.15    -0.2    
-0.2    -0.2    -0.2    -0.2    -0.2    
-0.2    -0.2    -0.2    -0.25    -0.25    
-0.25    -0.25    -0.25    -0.25    -0.25    
-0.25    -0.25    -0.3    -0.3    -0.3    
-0.3    -0.3    -0.3    -0.3    -0.3    
-0.3    -0.35    -0.35    -0.35    -0.35    
-0.35    -0.35    -0.35    -0.35    -0.35    
-0.4    -0.4    -0.4    -0.4    -0.4    
-0.4    -0.4    -0.4    -0.4    -0.45    
-0.45    -0.45    -0.45    -0.45    -0.45    
-0.45    -0.45    -0.45    -0.5    -0.5    
-0.5    -0.5    -0.5    -0.5    -0.5    
-0.5    -0.5    -0.5    
388.570771762    391.341096649    392.352248733    374.5346663    384.628284882    
389.795814582    366.561066542    378.734741275    386.082471085    355.414084798    
369.215053983    380.403324151    339.294171546    351.75293405    371.020983667    
314.941973286    312.765253673    353.510574259    276.086198735    201.222730751    
314.140969506    210.248661294    201.776918821    94.3083287451    393.630953088    
377.519346533    391.396881195    370.168329306    388.067507211    359.68236677    
382.814113094    344.17095994    373.827482763    320.190450512    356.502874743    
281.156257849    316.755400961    214.178638826    202.979984642    95.8716656737    
395.183887759    381.288542518    393.411343756    374.87254973    390.690486257    
365.488598851    386.222703143    351.177774388    378.181543608    328.272864229    
361.768131382    289.658533838    322.203962629    221.460015204    206.192187647    
99.1153697088    396.987319189    385.859077659    395.83179006    380.776361018    
394.004147044    373.127702646    390.862454239    361.010324803    384.807407204    
340.645080764    371.228690521    304.259848171    334.740546383    235.97147203    
217.30241061    107.051143291    398.973067924    391.158841079    398.568883735    
387.850836693    397.914421834    382.729876919    396.73819685    374.26472543    
394.266244491    359.112917564    387.776944667    329.507804011    365.491931804    
266.956829114    266.677417003    130.809133846    396.987319189    395.83179006    
394.004147045    390.862454239    384.807407204    371.228690521    334.740546383    
217.30241061    359.123623088    346.777104688    329.942755736    306.532107285    
273.316860307    225.415999936    156.146990459    59.3471289702    363.944735257    
352.578831717    336.769756661    314.277672293    281.579664106    233.313150931    
162.19426343    61.722403616    370.018199889    360.116585506    346.003692371    
325.309785413    294.137863111    246.299342825    173.080675863    66.4447791483    
377.363472723    369.536655637    358.070568024    340.623962448    313.032986202    
268.008066997    193.897033767    77.2698398073    385.859077665    380.776361027    
373.127702653    361.010324808    340.645080767    304.259848173    235.971472032    
107.051143292    395.183887761    393.411343759    390.69048626    386.222703146    
378.18154361    361.768131383    322.20396263    206.192187647    345.681889471    
329.970069847    309.102413519    281.141995042    243.507484768    193.087698344    
127.044891906    45.2148436492    352.137111801    337.696478927    318.133221114    
291.30376037    254.241987491    203.233377438    134.723720885    48.1989880884    
360.244513631    347.689583713    330.266859762    305.63774787    270.332535883    
219.597766205    148.188620793    53.925165039    370.018199897    360.116585521    
346.003692383    325.309785424    294.137863118    246.299342831    173.080675866    
66.4447791491    381.288542531    374.872549747    365.488598867    351.177774401    
328.272864238    289.658533844    221.460015209    99.1153697101    393.630953091    
391.396881201    388.067507218    382.814113099    373.827482767    356.502874746    
316.755400963    202.979984643    334.460826263    316.328585893    292.816954392    
262.288475027    222.830380136    172.585801869    110.601467955    38.3836620902    
342.31014574    325.670055458    303.660057472    274.389938436    235.495102408    
184.435940779    119.482183648    41.8067834297    352.137111808    337.696478944    
318.133221124    291.30376038    254.241987503    203.233377447    134.723720889    
48.1989880903    363.944735271    352.578831741    336.769756688    314.277672313    
281.579664122    233.313150942    162.194263437    61.7224036181    377.519346549    
370.16832933    359.682366794    344.170959959    320.190450526    281.156257861    
214.178638833    95.871665676    392.352248737    389.79581459    386.082471092    
380.403324157    371.020983672    353.510574263    314.140969508    201.776918823    
325.47114617    305.687839052    280.544588081    248.692041648    208.715356708    
159.488109865    100.861670387    34.651781488    334.46082624    316.328585877    
292.816954373    262.288475021    222.830380137    172.58580187    110.601467955    
38.3836620923    345.681889461    329.970069845    309.102413526    281.141995046    
243.507484776    193.087698351    127.044891913    45.214843652    359.123623094    
346.777104705    329.942755754    306.5321073    273.316860319    225.415999948    
156.146990466    59.3471289731    374.53466631    366.56106656    355.414084815    
339.294171559    314.941973299    276.086198744    210.248661301    94.3083287473    
391.341096651    388.570771767    384.628284887    378.734741281    369.215053987    
351.752934054    312.765253675    201.222730752    318.586625856    297.727064189    
271.626869523    239.157677579    199.225614265    151.090014206    94.9135975502    
32.4667379342    328.465689336    309.365770408    284.977606362    253.859540544    
214.390060075    165.071214143    105.250597837    36.4107581208    340.765367914    
324.233946613    302.609485011    274.117729282    236.425987294    186.738634152    
122.494630151    43.5292344935    355.461359816    342.486281232    325.061067469    
301.219188799    267.923932461    220.545100847    152.630997218    58.0373363256    
372.272136383    363.901442437    352.375863333    335.971162703    311.549104643    
273.001365997    208.006557336    93.468114528    390.575488711    387.669139678    
383.595925255    377.602354371    368.054745602    350.693457703    311.99148011    
200.931344772    188.958708044    228.791096508    221.79405004    142.047890439    
182.23101632    88.5358812172    136.306362479    30.1302729732    84.6049643888    
28.7212768669    313.630368836    292.103227625    265.469865405    232.75090308    
193.041869028    145.793658979    91.2766837396    31.1607554037    324.159190198    
304.461730216    279.587018401    248.225694978    208.927624056    160.372176731    
102.01191909    35.2450744852    337.241717965    320.206705305    298.164146803    
269.450179002    231.878083027    182.807174115    119.773425283    42.5470732019    
352.842165658    339.482766348    321.73283068    297.70913358    264.487352848    
217.559675295    150.555368176    57.2858790668    370.656676313    362.044167436    
350.311497316    333.786293507    309.401447785    271.127776705    206.698724859    
92.993234515    390.029338558    387.040349583    382.895834516    376.859905752    
367.323248507    350.053678157    311.543747281    200.768432784    217.482998348    
178.168024847    132.908916448    82.3207716355    27.9122725208    310.4332392    
288.525152999    261.616371143    228.816261645    189.322397504    142.674847718    
89.1752070432    30.4155148052    321.385700194    301.348469531    276.223066707    
244.778904825    205.657860507    157.62147001    100.15355646    34.5850155785    
334.976180792    317.655923905    295.398662438    266.606286357    229.170180857    
180.521050191    118.224386963    41.9958990845    351.160720492    337.584447787    
319.66837255    295.578956643    262.451844922    215.835279069    149.383507338    
56.8681412463    369.620824388    360.872272629    349.033994422    332.464613896    
308.134910497    270.051768131    205.965665138    92.7314903657    389.679368036    
386.643966899    382.463163704    376.411609359    366.892962249    349.6875169    
311.293915057    200.679135705    215.429811321    176.255191909    131.327616578    
81.2680031599    27.5416716458    308.868236779    286.788282363    259.764123271    
226.945995194    187.575521315    141.227436365    88.2098679287    30.0753530929    
320.02941352    299.839243332    274.608974017    243.144258802    204.126585808    
156.349328451    99.3033400773    34.2850642205    333.869412012    316.421077628    
294.074178325    265.260834403    227.905960137    179.467810129    117.518883429    
41.7466765966    350.340050735    336.666630833    318.681343314    294.573488562    
261.504389613    215.043828531    148.85220344    56.6802128705    369.115610119    
360.306234852    348.424046436    331.841918946    307.546825992    269.559460479    
205.634585072    92.614255956    389.508743632    386.452614346    382.256740727    
376.200619913    366.693450473    349.520294702    311.181340377    200.639247434    

0.175    0.125    0.125    0.125    0.225    
0.175    0.175    0.275    0.225    0.225    
0.325    0.275    0.275    0.375    0.325    
0.325    0.425    0.375    0.375    0.475    
0.425    0.425    0.475    0.475    0.125    
0.125    0.175    0.175    0.225    0.225    
0.275    0.275    0.325    0.325    0.375    
0.375    0.425    0.425    0.475    0.475    
0.125    0.125    0.175    0.175    0.225    
0.225    0.275    0.275    0.325    0.325    
0.375    0.375    0.425    0.425    0.475    
0.475    0.125    0.125    0.175    0.175    
0.225    0.225    0.275    0.275    0.325    
0.325    0.375    0.375    0.425    0.425    
0.475    0.475    0.125    0.125    0.175    
0.175    0.225    0.225    0.275    0.275    
0.325    0.325    0.375    0.375    0.425    
0.425    0.475    0.475    0.125    0.175    
0.225    0.275    0.325    0.375    0.425    
0.475    0.125    0.175    0.225    0.275    
0.325    0.375    0.425    0.475    0.125    
0.175    0.225    0.275    0.325    0.375    
0.425    0.475    0.125    0.175    0.225    
0.275    0.325    0.375    0.425    0.475    
0.125    0.175    0.225    0.275    0.325    
0.375    0.425    0.475    0.125    0.175    
0.225    0.275    0.325    0.375    0.425    
0.475    0.125    0.175    0.225    0.275    
0.325    0.375    0.425    0.475    0.125    
0.175    0.225    0.275    0.325    0.375    
0.425    0.475    0.125    0.175    0.225    
0.275    0.325    0.375    0.425    0.475    
0.125    0.175    0.225    0.275    0.325    
0.375    0.425    0.475    0.125    0.175    
0.225    0.275    0.325    0.375    0.425    
0.475    0.125    0.175    0.225    0.275    
0.325    0.375    0.425    0.475    0.125    
0.175    0.225    0.275    0.325    0.375    
0.425    0.475    0.125    0.175    0.225    
0.275    0.325    0.375    0.425    0.475    
0.125    0.175    0.225    0.275    0.325    
0.375    0.425    0.475    0.125    0.175    
0.225    0.275    0.325    0.375    0.425    
0.475    0.125    0.175    0.225    0.275    
0.325    0.375    0.425    0.475    0.125    
0.175    0.225    0.275    0.325    0.375    
0.425    0.475    0.125    0.175    0.225    
0.275    0.325    0.375    0.425    0.475    
0.125    0.175    0.225    0.275    0.325    
0.375    0.425    0.475    0.125    0.175    
0.225    0.275    0.325    0.375    0.425    
0.475    0.125    0.175    0.225    0.275    
0.325    0.375    0.425    0.475    0.125    
0.175    0.225    0.275    0.325    0.375    
0.425    0.475    0.125    0.175    0.225    
0.275    0.325    0.375    0.425    0.475    
0.125    0.175    0.225    0.275    0.325    
0.375    0.425    0.475    0.125    0.175    
0.225    0.275    0.325    0.375    0.425    
0.475    0.125    0.175    0.225    0.275    
0.325    0.375    0.425    0.475    0.125    
0.175    0.225    0.275    0.325    0.375    
0.425    0.475    0.125    0.175    0.225    
0.275    0.325    0.375    0.425    0.475    
0.125    0.175    0.225    0.275    0.325    
0.375    0.425    0.475    0.125    0.175    
0.225    0.275    0.325    0.375    0.425    
0.475    0.325    0.275    0.275    0.375    
0.325    0.425    0.375    0.475    0.425    
0.475    0.125    0.175    0.225    0.275    
0.325    0.375    0.425    0.475    0.125    
0.175    0.225    0.275    0.325    0.375    
0.425    0.475    0.125    0.175    0.225    
0.275    0.325    0.375    0.425    0.475    
0.125    0.175    0.225    0.275    0.325    
0.375    0.425    0.475    0.125    0.175    
0.225    0.275    0.325    0.375    0.425    
0.475    0.125    0.175    0.225    0.275    