Title = " tecplot file for 2D Cavity problem " 
variables = "x", "y", "z", "velX", "cellCentroidY" 
Zone T = "nmesh0" N = 775 E = 500 DATAPACKING = BLOCK, VARLOCATION = ([4-5]=CELLCENTERED),  ZONETYPE=FEBRICK 
0.45    0.45    0.5    0.5    0.45    
0.5    0.45    0.5    0.45    0.5    
0.45    0.5    0.45    0.5    0.45    
0.5    0.45    0.5    0.45    0.5    
0.45    0.5    0.45    0.5    0.45    
0.5    0.45    0.5    0.45    0.5    
0.45    0.5    0.45    0.5    0.45    
0.5    0.45    0.5    0.45    0.5    
0.45    0.5    0.45    0.5    0.45    
0.5    0.45    0.5    0.45    0.5    
0.45    0.5    0.45    0.5    0.45    
0.5    0.45    0.5    0.45    0.5    
0.45    0.5    0.45    0.5    0.45    
0.5    0.45    0.5    0.45    0.5    
0.45    0.5    0.45    0.5    0.45    
0.5    0.45    0.5    0.45    0.5    
0.45    0.5    0.45    0.5    0.45    
0.5    0.45    0.5    0.45    0.5    
0.45    0.5    0.45    0.5    0.45    
0.5    0.45    0.5    0.45    0.5    
0.45    0.5    0.45    0.5    0.45    
0.5    0.45    0.5    0.45    0.5    
0.45    0.5    0.45    0.5    0.45    
0.5    0.45    0.5    0.45    0.5    
0.45    0.5    0.45    0.5    0.45    
0.5    0.45    0.5    0.45    0.5    
0.45    0.5    0.45    0.5    0.45    
0.5    0.45    0.5    0.45    0.5    
0.45    0.5    0.45    0.5    0.45    
0.5    0.45    0.5    0.45    0.5    
0.45    0.5    0.45    0.5    0.45    
0.5    0.45    0.5    0.45    0.5    
0.45    0.5    0.45    0.5    0.45    
0.5    0.45    0.5    0.45    0.5    
0.45    0.5    0.45    0.5    0.45    
0.5    0.45    0.5    0.45    0.5    
0.45    0.4    0.4    0.4    0.4    
0.4    0.4    0.4    0.4    0.4    
0.4    0.4    0.4    0.4    0.4    
0.4    0.4    0.4    0.4    0.4    
0.4    0.4    0.4    0.4    0.4    
0.4    0.4    0.4    0.4    0.4    
0.4    0.4    0.4    0.4    0.4    
0.4    0.4    0.4    0.4    0.4    
0.4    0.4    0.4    0.4    0.4    
0.4    0.4    0.4    0.4    0.4    
0.4    0.4    0.4    0.4    0.4    
0.4    0.4    0.4    0.4    0.4    
0.4    0.4    0.4    0.4    0.4    
0.4    0.4    0.4    0.4    0.4    
0.4    0.4    0.4    0.4    0.4    
0.4    0.4    0.4    0.4    0.4    
0.4    0.4    0.4    0.4    0.4    
0.4    0.4    0.35    0.35    0.35    
0.35    0.35    0.35    0.35    0.35    
0.35    0.35    0.35    0.35    0.35    
0.35    0.35    0.35    0.35    0.35    
0.35    0.35    0.35    0.35    0.35    
0.35    0.35    0.35    0.35    0.35    
0.35    0.35    0.35    0.35    0.35    
0.35    0.35    0.35    0.35    0.35    
0.35    0.35    0.35    0.35    0.35    
0.35    0.35    0.35    0.35    0.35    
0.35    0.35    0.35    0.35    0.35    
0.35    0.35    0.35    0.35    0.35    
0.35    0.35    0.35    0.35    0.35    
0.35    0.35    0.35    0.35    0.35    
0.35    0.35    0.35    0.35    0.35    
0.35    0.35    0.35    0.35    0.35    
0.35    0.35    0.35    0.35    0.35    
0.3    0.3    0.3    0.3    0.3    
0.3    0.3    0.3    0.3    0.3    
0.3    0.3    0.3    0.3    0.3    
0.3    0.3    0.3    0.3    0.3    
0.3    0.3    0.3    0.3    0.3    
0.3    0.3    0.3    0.3    0.3    
0.3    0.3    0.3    0.3    0.3    
0.3    0.3    0.3    0.3    0.3    
0.3    0.3    0.3    0.3    0.3    
0.3    0.3    0.3    0.3    0.3    
0.3    0.3    0.3    0.3    0.3    
0.3    0.3    0.3    0.3    0.3    
0.3    0.3    0.3    0.3    0.3    
0.3    0.3    0.3    0.3    0.3    
0.3    0.3    0.3    0.3    0.3    
0.3    0.3    0.3    0.3    0.3    
0.3    0.3    0.3    0.3    0.3    
0.3    0.3    0.25    0.25    0.25    
0.25    0.25    0.25    0.25    0.25    
0.25    0.25    0.25    0.25    0.25    
0.25    0.25    0.25    0.25    0.25    
0.25    0.25    0.25    0.25    0.25    
0.25    0.25    0.25    0.25    0.25    
0.25    0.25    0.25    0.25    0.25    
0.25    0.25    0.25    0.25    0.25    
0.25    0.25    0.25    0.25    0.25    
0.25    0.25    0.25    0.25    0.25    
0.25    0.25    0.25    0.25    0.25    
0.25    0.25    0.25    0.25    0.25    
0.25    0.25    0.25    0.25    0.25    
0.25    0.25    0.25    0.25    0.25    
0.25    0.25    0.25    0.25    0.25    
0.25    0.25    0.25    0.25    0.25    
0.25    0.25    0.25    0.25    0.25    
0.25    0.25    0.25    0.25    0.25    
0.25    0.25    0.2    0.2    0.2    
0.2    0.2    0.2    0.2    0.2    
0.2    0.2    0.2    0.2    0.2    
0.2    0.2    0.2    0.2    0.2    
0.2    0.2    0.2    0.2    0.2    
0.2    0.2    0.2    0.2    0.2    
0.2    0.2    0.2    0.2    0.2    
0.2    0.2    0.2    0.2    0.2    
0.2    0.2    0.2    0.2    0.2    
0.2    0.2    0.2    0.2    0.2    
0.2    0.2    0.2    0.2    0.2    
0.2    0.2    0.2    0.2    0.2    
0.2    0.2    0.2    0.2    0.2    
0.2    0.2    0.2    0.2    0.2    
0.2    0.2    0.2    0.2    0.2    
0.2    0.2    0.2    0.2    0.2    
0.2    0.2    0.2    0.2    0.2    
0.2    0.2    0.2    0.2    0.15    
0.15    0.15    0.15    0.15    0.15    
0.15    0.15    0.15    0.15    0.15    
0.15    0.15    0.15    0.15    0.15    
0.15    0.15    0.15    0.15    0.15    
0.15    0.15    0.15    0.15    0.15    
0.15    0.15    0.15    0.15    0.15    
0.15    0.15    0.15    0.15    0.15    
0.15    0.15    0.15    0.15    0.15    
0.15    0.15    0.15    0.15    0.15    
0.15    0.15    0.15    0.15    0.15    
0.15    0.15    0.15    0.15    0.15    
0.15    0.15    0.15    0.15    0.15    
0.15    0.15    0.15    0.15    0.15    
0.15    0.15    0.15    0.15    0.15    
0.1    0.1    0.1    0.1    0.1    
0.1    0.1    0.1    0.1    0.1    
0.1    0.1    0.1    0.1    0.1    
0.1    0.1    0.1    0.1    0.1    
0.1    0.1    0.1    0.1    0.1    
0.1    0.1    0.1    0.1    0.1    
0.1    0.1    0.1    0.1    0.1    
0.1    0.1    0.1    0.1    0.1    
0.1    0.1    0.1    0.1    0.1    
0.1    0.1    0.1    0.1    0.1    
0.1    0.05    0.05    0.05    0.05    
0.05    0.05    0.05    0.05    0.05    
0.05    0.05    0.05    0.05    0.05    
0.05    0.05    0.05    0.05    0.05    
0.05    0.05    0.05    0.05    0.05    
0.05    0.05    0.05    0.05    0.05    
0.05    0.05    0.05    0.05    0.05    
0.05    0.05    0.05    0.05    0.5    

0.15    0.1    0.1    0.15    0.2    
0.2    0.25    0.25    0.3    0.3    
0.35    0.35    0.4    0.4    0.45    
0.45    0.5    0.5    0.1    0.1    
0.15    0.15    0.2    0.2    0.25    
0.25    0.3    0.3    0.35    0.35    
0.4    0.4    0.45    0.45    0.5    
0.5    0.1    0.1    0.15    0.15    
0.2    0.2    0.25    0.25    0.3    
0.3    0.35    0.35    0.4    0.4    
0.45    0.45    0.5    0.5    0.1    
0.1    0.15    0.15    0.2    0.2    
0.25    0.25    0.3    0.3    0.35    
0.35    0.4    0.4    0.45    0.45    
0.5    0.5    0.1    0.1    0.15    
0.15    0.2    0.2    0.25    0.25    
0.3    0.3    0.35    0.35    0.4    
0.4    0.45    0.45    0.5    0.5    
0.1    0.1    0.15    0.15    0.2    
0.2    0.25    0.25    0.3    0.3    
0.35    0.35    0.4    0.4    0.45    
0.45    0.5    0.5    0.1    0.1    
0.15    0.15    0.2    0.2    0.25    
0.25    0.3    0.3    0.35    0.35    
0.4    0.4    0.45    0.45    0.5    
0.5    0.2    0.2    0.25    0.25    
0.3    0.3    0.35    0.35    0.4    
0.4    0.45    0.45    0.5    0.5    
0.2    0.2    0.25    0.25    0.3    
0.3    0.35    0.35    0.4    0.4    
0.45    0.45    0.5    0.5    0.2    
0.2    0.25    0.25    0.3    0.3    
0.35    0.35    0.4    0.4    0.45    
0.45    0.5    0.5    0.2    0.2    
0.25    0.25    0.3    0.3    0.35    
0.35    0.4    0.4    0.45    0.45    
0.5    0.3    0.25    0.35    0.4    
0.45    0.5    0.15    0.1    0.2    
0.25    0.2    0.3    0.35    0.4    
0.45    0.5    0.1    0.15    0.2    
0.25    0.3    0.35    0.4    0.45    
0.5    0.1    0.15    0.2    0.25    
0.3    0.35    0.4    0.45    0.5    
0.1    0.15    0.2    0.25    0.3    
0.35    0.4    0.45    0.5    0.15    
0.2    0.25    0.3    0.35    0.4    
0.45    0.5    0.2    0.25    0.3    
0.35    0.4    0.45    0.5    0.2    
0.25    0.3    0.35    0.4    0.45    
0.5    0.2    0.25    0.3    0.35    
0.4    0.45    0.5    0.2    0.25    
0.3    0.35    0.4    0.45    0.5    
0.2    0.25    0.3    0.35    0.4    
0.45    0.5    0.25    0.2    0.3    
0.35    0.4    0.45    0.5    0.15    
0.1    0.2    0.25    0.3    0.35    
0.4    0.45    0.5    0.1    0.15    
0.2    0.25    0.3    0.35    0.4    
0.45    0.5    0.1    0.15    0.2    
0.25    0.3    0.35    0.4    0.45    
0.5    0.1    0.15    0.2    0.25    
0.3    0.35    0.4    0.45    0.5    
0.25    0.3    0.35    0.4    0.45    
0.5    0.25    0.3    0.35    0.4    
0.45    0.5    0.25    0.2    0.3    
0.35    0.4    0.45    0.5    0.2    
0.25    0.3    0.35    0.4    0.45    
0.5    0.2    0.25    0.3    0.35    
0.4    0.45    0.5    0.2    0.25    
0.3    0.35    0.4    0.45    0.5    
0.25    0.2    0.3    0.35    0.4    
0.4    0.35    0.45    0.45    0.5    
0.5    0.15    0.1    0.2    0.25    
0.3    0.35    0.4    0.45    0.5    
0.1    0.15    0.2    0.25    0.3    
0.35    0.4    0.45    0.5    0.1    
0.15    0.2    0.25    0.3    0.35    
0.4    0.45    0.5    0.1    0.15    
0.2    0.25    0.3    0.35    0.4    
0.45    0.5    0.25    0.3    0.35    
0.4    0.45    0.5    0.25    0.3    
0.35    0.4    0.45    0.5    0.25    
0.2    0.3    0.35    0.4    0.45    
0.5    0.2    0.25    0.3    0.35    
0.4    0.45    0.5    0.2    0.25    
0.3    0.35    0.4    0.45    0.5    
0.2    0.25    0.3    0.35    0.4    
0.45    0.5    0.4    0.35    0.45    
0.5    0.35    0.4    0.45    0.5    
0.15    0.1    0.2    0.25    0.3    
0.35    0.4    0.45    0.5    0.1    
0.15    0.2    0.25    0.3    0.35    
0.4    0.45    0.5    0.1    0.15    
0.2    0.25    0.3    0.35    0.4    
0.45    0.5    0.1    0.15    0.2    
0.25    0.3    0.35    0.4    0.45    
0.5    0.1    0.15    0.2    0.25    
0.3    0.35    0.4    0.45    0.5    
0.1    0.15    0.2    0.25    0.3    
0.35    0.4    0.45    0.5    0.25    
0.2    0.3    0.35    0.4    0.45    
0.5    0.2    0.25    0.3    0.35    
0.4    0.45    0.5    0.2    0.25    
0.3    0.35    0.4    0.45    0.5    
0.2    0.25    0.3    0.35    0.4    
0.45    0.5    0.45    0.4    0.5    
0.4    0.45    0.5    0.15    0.1    
0.2    0.25    0.3    0.35    0.4    
0.45    0.5    0.1    0.15    0.2    
0.25    0.3    0.35    0.4    0.45    
0.5    0.1    0.15    0.2    0.25    
0.3    0.35    0.4    0.45    0.5    
0.1    0.15    0.2    0.25    0.3    
0.35    0.4    0.45    0.5    0.1    
0.15    0.2    0.25    0.3    0.35    
0.4    0.45    0.5    0.1    0.15    
0.2    0.25    0.3    0.35    0.4    
0.45    0.5    0.2    0.25    0.3    
0.35    0.4    0.45    0.5    0.2    
0.25    0.3    0.35    0.4    0.45    
0.5    0.2    0.25    0.3    0.35    
0.4    0.45    0.5    0.2    0.25    
0.3    0.35    0.4    0.45    0.45    
0.4    0.5    0.35    0.3    0.4    
0.45    0.5    0.2    0.15    0.25    
0.3    0.35    0.4    0.45    0.5    
0.15    0.2    0.25    0.3    0.35    
0.4    0.45    0.5    0.15    0.1    
0.2    0.25    0.3    0.35    0.4    
0.45    0.5    0.1    0.15    0.2    
0.25    0.3    0.35    0.4    0.45    
0.5    0.1    0.15    0.2    0.25    
0.3    0.35    0.4    0.45    0.25    
0.3    0.35    0.4    0.45    0.25    
0.3    0.35    0.4    0.45    0.25    
0.2    0.3    0.35    0.4    0.45    
0.2    0.25    0.3    0.35    0.4    
0.45    0.4    0.5    0.4    0.45    
0.5    0.4    0.45    0.5    0.25    
0.2    0.3    0.35    0.4    0.45    
0.5    0.2    0.25    0.3    0.35    
0.4    0.45    0.5    0.2    0.25    
0.3    0.35    0.4    0.45    0.5    
0.2    0.25    0.3    0.35    0.4    
0.45    0.25    0.3    0.35    0.4    
0.45    0.25    0.3    0.35    0.4    
0.45    0.25    0.3    0.35    0.4    
0.45    0.5    0.45    0.45    0.5    
0.45    0.5    0.45    0.4    0.5    
0.25    0.2    0.3    0.35    0.4    
0.45    0.5    0.2    0.25    0.3    
0.35    0.4    0.45    0.5    0.2    
0.25    0.3    0.35    0.4    0.45    
0.25    0.3    0.35    0.25    0.3    
0.35    0.25    0.3    0.35    0.5    

0.0    0.0    0.0    0.0    0.0    
0.0    0.0    0.0    0.0    0.0    
0.0    0.0    0.0    0.0    0.0    
0.0    0.0    0.0    -0.05    -0.05    
-0.05    -0.05    -0.05    -0.05    -0.05    
-0.05    -0.05    -0.05    -0.05    -0.05    
-0.05    -0.05    -0.05    -0.05    -0.05    
-0.05    -0.1    -0.1    -0.1    -0.1    
-0.1    -0.1    -0.1    -0.1    -0.1    
-0.1    -0.1    -0.1    -0.1    -0.1    
-0.1    -0.1    -0.1    -0.1    -0.15    
-0.15    -0.15    -0.15    -0.15    -0.15    
-0.15    -0.15    -0.15    -0.15    -0.15    
-0.15    -0.15    -0.15    -0.15    -0.15    
-0.15    -0.15    -0.2    -0.2    -0.2    
-0.2    -0.2    -0.2    -0.2    -0.2    
-0.2    -0.2    -0.2    -0.2    -0.2    
-0.2    -0.2    -0.2    -0.2    -0.2    
-0.25    -0.25    -0.25    -0.25    -0.25    
-0.25    -0.25    -0.25    -0.25    -0.25    
-0.25    -0.25    -0.25    -0.25    -0.25    
-0.25    -0.25    -0.25    -0.3    -0.3    
-0.3    -0.3    -0.3    -0.3    -0.3    
-0.3    -0.3    -0.3    -0.3    -0.3    
-0.3    -0.3    -0.3    -0.3    -0.3    
-0.3    -0.35    -0.35    -0.35    -0.35    
-0.35    -0.35    -0.35    -0.35    -0.35    
-0.35    -0.35    -0.35    -0.35    -0.35    
-0.4    -0.4    -0.4    -0.4    -0.4    
-0.4    -0.4    -0.4    -0.4    -0.4    
-0.4    -0.4    -0.4    -0.4    -0.45    
-0.45    -0.45    -0.45    -0.45    -0.45    
-0.45    -0.45    -0.45    -0.45    -0.45    
-0.45    -0.45    -0.45    -0.5    -0.5    
-0.5    -0.5    -0.5    -0.5    -0.5    
-0.5    -0.5    -0.5    -0.5    -0.5    
-0.5    0.0    0.0    0.0    0.0    
0.0    0.0    -0.05    -0.05    -0.05    
-0.05    0.0    -0.05    -0.05    -0.05    
-0.05    -0.05    -0.1    -0.1    -0.1    
-0.1    -0.1    -0.1    -0.1    -0.1    
-0.1    -0.15    -0.15    -0.15    -0.15    
-0.15    -0.15    -0.15    -0.15    -0.15    
-0.2    -0.2    -0.2    -0.2    -0.2    
-0.2    -0.2    -0.2    -0.2    -0.25    
-0.25    -0.25    -0.25    -0.25    -0.25    
-0.25    -0.25    -0.3    -0.3    -0.3    
-0.3    -0.3    -0.3    -0.3    -0.35    
-0.35    -0.35    -0.35    -0.35    -0.35    
-0.35    -0.4    -0.4    -0.4    -0.4    
-0.4    -0.4    -0.4    -0.45    -0.45    
-0.45    -0.45    -0.45    -0.45    -0.45    
-0.5    -0.5    -0.5    -0.5    -0.5    
-0.5    -0.5    0.0    0.0    0.0    
0.0    2.4651903288e-32    0.0    0.0    -0.05    
-0.05    -0.05    -0.05    -0.05    -0.05    
-0.05    -0.05    -0.05    -0.1    -0.1    
-0.1    -0.1    -0.1    -0.1    -0.1    
-0.1    -0.1    -0.15    -0.15    -0.15    
-0.15    -0.15    -0.15    -0.15    -0.15    
-0.15    -0.2    -0.2    -0.2    -0.2    
-0.2    -0.2    -0.2    -0.2    -0.2    
-0.25    -0.25    -0.25    -0.25    -0.25    
-0.25    -0.3    -0.3    -0.3    -0.3    
-0.3    -0.3    -0.35    -0.35    -0.35    
-0.35    -0.35    -0.35    -0.35    -0.4    
-0.4    -0.4    -0.4    -0.4    -0.4    
-0.4    -0.45    -0.45    -0.45    -0.45    
-0.45    -0.45    -0.45    -0.5    -0.5    
-0.5    -0.5    -0.5    -0.5    -0.5    
0.0    0.0    0.0    0.0    0.0    
0.05    0.05    0.0    0.05    0.0    
0.05    -0.05    -0.05    -0.05    -0.05    
-0.05    -0.05    -0.05    -0.05    -0.05    
-0.1    -0.1    -0.1    -0.1    -0.1    
-0.1    -0.1    -0.1    -0.1    -0.15    
-0.15    -0.15    -0.15    -0.15    -0.15    
-0.15    -0.15    -0.15    -0.2    -0.2    
-0.2    -0.2    -0.2    -0.2    -0.2    
-0.2    -0.2    -0.25    -0.25    -0.25    
-0.25    -0.25    -0.25    -0.3    -0.3    
-0.3    -0.3    -0.3    -0.3    -0.35    
-0.35    -0.35    -0.35    -0.35    -0.35    
-0.35    -0.4    -0.4    -0.4    -0.4    
-0.4    -0.4    -0.4    -0.45    -0.45    
-0.45    -0.45    -0.45    -0.45    -0.45    
-0.5    -0.5    -0.5    -0.5    -0.5    
-0.5    -0.5    0.05    0.05    0.05    
0.05    0.0    0.0    0.0    0.0    
-0.05    -0.05    -0.05    -0.05    -0.05    
-0.05    -0.05    -0.05    -0.05    -0.1    
-0.1    -0.1    -0.1    -0.1    -0.1    
-0.1    -0.1    -0.1    -0.15    -0.15    
-0.15    -0.15    -0.15    -0.15    -0.15    
-0.15    -0.15    -0.2    -0.2    -0.2    
-0.2    -0.2    -0.2    -0.2    -0.2    
-0.2    -0.25    -0.25    -0.25    -0.25    
-0.25    -0.25    -0.25    -0.25    -0.25    
-0.3    -0.3    -0.3    -0.3    -0.3    
-0.3    -0.3    -0.3    -0.3    -0.35    
-0.35    -0.35    -0.35    -0.35    -0.35    
-0.35    -0.4    -0.4    -0.4    -0.4    
-0.4    -0.4    -0.4    -0.45    -0.45    
-0.45    -0.45    -0.45    -0.45    -0.45    
-0.5    -0.5    -0.5    -0.5    -0.5    
-0.5    -0.5    0.05    0.05    0.05    
0.0    0.0    0.0    -0.05    -0.05    
-0.05    -0.05    -0.05    -0.05    -0.05    
-0.05    -0.05    -0.1    -0.1    -0.1    
-0.1    -0.1    -0.1    -0.1    -0.1    
-0.1    -0.15    -0.15    -0.15    -0.15    
-0.15    -0.15    -0.15    -0.15    -0.15    
-0.2    -0.2    -0.2    -0.2    -0.2    
-0.2    -0.2    -0.2    -0.2    -0.25    
-0.25    -0.25    -0.25    -0.25    -0.25    
-0.25    -0.25    -0.25    -0.3    -0.3    
-0.3    -0.3    -0.3    -0.3    -0.3    
-0.3    -0.3    -0.35    -0.35    -0.35    
-0.35    -0.35    -0.35    -0.35    -0.4    
-0.4    -0.4    -0.4    -0.4    -0.4    
-0.4    -0.45    -0.45    -0.45    -0.45    
-0.45    -0.45    -0.45    -0.5    -0.5    
-0.5    -0.5    -0.5    -0.5    0.0    
0.0    0.0    -0.05    -0.05    -0.05    
-0.05    -0.05    -0.1    -0.1    -0.1    
-0.1    -0.1    -0.1    -0.1    -0.1    
-0.15    -0.15    -0.15    -0.15    -0.15    
-0.15    -0.15    -0.15    -0.2    -0.2    
-0.2    -0.2    -0.2    -0.2    -0.2    
-0.2    -0.2    -0.25    -0.25    -0.25    
-0.25    -0.25    -0.25    -0.25    -0.25    
-0.25    -0.3    -0.3    -0.3    -0.3    
-0.3    -0.3    -0.3    -0.3    -0.35    
-0.35    -0.35    -0.35    -0.35    -0.4    
-0.4    -0.4    -0.4    -0.4    -0.45    
-0.45    -0.45    -0.45    -0.45    -0.45    
-0.5    -0.5    -0.5    -0.5    -0.5    
0.0    0.0    0.0    -0.05    -0.05    
-0.05    -0.1    -0.1    -0.1    -0.15    
-0.15    -0.15    -0.15    -0.15    -0.15    
-0.15    -0.2    -0.2    -0.2    -0.2    
-0.2    -0.2    -0.2    -0.25    -0.25    
-0.25    -0.25    -0.25    -0.25    -0.25    
-0.3    -0.3    -0.3    -0.3    -0.3    
-0.3    -0.35    -0.35    -0.35    -0.35    
-0.35    -0.4    -0.4    -0.4    -0.4    
-0.4    -0.45    -0.45    -0.45    -0.45    
-0.45    0.0    0.0    -0.05    -0.05    
-0.1    -0.1    -0.15    -0.15    -0.15    
-0.2    -0.2    -0.2    -0.2    -0.2    
-0.2    -0.2    -0.25    -0.25    -0.25    
-0.25    -0.25    -0.25    -0.25    -0.3    
-0.3    -0.3    -0.3    -0.3    -0.3    
-0.35    -0.35    -0.35    -0.4    -0.4    
-0.4    -0.45    -0.45    -0.45    -0.5    

386.452614416    389.508743712    389.679368097    382.256740781    386.643966948    
376.200619959    382.463163742    366.693450506    376.411609389    331.841919079    
349.520294724    366.892962269    307.546826084    311.181340389    349.687516914    
269.55946054    200.639247438    311.293915066    205.634585109    200.679135708    
92.6142559676    390.029338603    369.620824564    387.040349618    360.872272772    
382.895834541    349.03399453    376.859905769    332.464613979    367.323248519    
308.134910557    350.053678166    270.051768173    311.543747286    205.965665162    
200.768432786    92.7314903738    390.575488739    370.656676435    387.669139697    
362.044167529    383.595925267    350.311497386    377.602354379    333.786293559    
368.054745608    309.401447823    350.693457707    271.127776731    311.991480113    
206.698724875    200.931344773    92.9932345203    391.341096665    372.272136459    
388.570771772    363.901442487    384.628284888    352.375863366    378.734741281    
335.971162727    369.215053987    311.549104659    351.752934054    273.001366009    
312.765253676    208.006557344    201.222730752    93.4681145312    392.352248748    
389.795814586    366.561066574    386.082471086    355.414084808    380.403324153    
339.294171556    371.020983668    314.941973297    353.510574261    276.086198745    
314.140969507    210.248661303    201.776918822    94.3083287484    388.06750721    
359.682366774    382.814113091    344.170959941    373.827482762    320.190450515    
356.502874743    281.156257855    316.755400961    214.17863883    202.979984642    
95.8716656754    390.690486255    365.488598844    386.22270314    351.177774378    
378.181543606    328.272864224    361.768131381    289.658533836    322.203962628    
221.460015204    206.192187646    99.1153697088    394.004147042    373.127702636    
390.862454236    361.010324792    384.807407202    340.645080756    371.22869052    
304.259848166    334.740546382    235.971472027    217.302410609    107.051143291    
397.914421833    382.729876912    396.738196849    374.264725421    394.26624449    
359.112917557    387.776944667    329.507804006    365.491931804    266.956829112    
266.677417003    130.809133845    394.004147042    390.862454236    384.807407201    
371.22869052    334.740546382    217.30241061    294.573488796    261.504389773    
215.043828636    148.852203502    56.6802128914    351.160720794    337.58444804    
319.668372753    295.578956802    262.451845032    215.835279143    149.383507383    
56.8681412613    352.842165872    339.482766519    321.732830815    297.709133684    
264.487352919    217.559675344    150.555368208    57.2858790772    355.461359959    
342.486281328    325.061067532    301.21918885    267.923932498    220.545100874    
152.630997236    58.0373363324    306.532107304    273.316860325    225.415999957    
156.146990474    59.3471289761    314.277672295    281.579664111    233.313150939    
162.194263437    61.7224036186    325.309785395    294.1378631    246.299342821    
173.080675861    66.4447791478    358.070568006    340.623962425    313.032986187    
268.008066987    193.897033762    77.2698398058    373.127702637    361.010324792    
340.645080755    304.259848166    235.971472028    107.051143291    390.690486255    
386.22270314    378.181543606    361.768131381    322.203962629    206.192187647    
318.681343611    294.074178777    265.260834736    227.905960357    179.467810268    
117.518883512    41.7466766238    334.976181257    317.655924302    295.39866275    
266.606286593    229.170181014    180.521050293    118.224387024    41.9958991039    
337.241718295    320.206705576    298.164147019    269.450179164    231.878083139    
182.807174189    119.773425327    42.5470732162    340.765368128    324.233946772    
302.609485117    274.117729368    236.425987362    186.738634199    122.494630179    
43.5292345029    281.14199507    243.507484799    193.087698375    127.044891928    
45.2148436577    291.30376037    254.241987499    203.233377452    134.723720895    
48.198988092    305.637747844    270.332535868    219.5977662    148.188620791    
53.9251650384    346.003692353    325.309785389    294.137863098    246.299342819    
173.08067586    66.4447791473    365.488598843    351.177774378    328.272864222    
289.658533834    221.460015204    99.1153697084    388.067507209    382.814113091    
373.827482761    356.502874743    316.755400961    202.979984642    156.349328624    
99.3033401779    34.2850642529    321.385700848    301.348470091    276.223067147    
244.778905133    205.6578607    157.621470126    100.15355653    34.5850156025    
324.159190637    304.461730594    279.587018693    248.225695188    208.927624193    
160.37217682    102.01191914    35.245074502    328.465689614    309.365770626    
284.977606523    253.859540669    214.39006016    165.071214204    105.250597872    
36.4107581324    262.288475069    222.830380184    172.585801911    110.601467984    
38.3836621012    274.389938437    235.495102422    184.435940797    119.482183661    
41.8067834341    291.303760341    254.241987485    203.233377442    134.723720888    
48.1989880898    336.76975664    314.277672269    281.579664095    233.313150928    
162.19426343    61.7224036159    359.68236676    344.170959928    320.190450505    
281.156257848    214.178638826    95.8716656736    386.082471081    380.403324147    
371.020983665    353.510574259    314.140969506    201.776918822    99.3033401704    
156.349328611    34.2850642463    88.2098680113    30.0753531143    88.2098680209    
30.0753531234    310.433239944    288.525153637    261.616371644    228.816261994    
189.322397712    142.674847836    89.1752071083    30.4155148278    313.630369305    
292.103228029    265.469865736    232.750903317    193.041869167    145.793659061    
91.2766837885    31.160755421    318.586626144    297.727064426    271.626869723    
239.157677723    199.225614356    151.090014262    94.9135975882    32.466737947    
248.692041729    208.715356774    159.488109915    100.861670421    34.6517815005    
262.288475041    222.83038016    172.58580189    110.60146797    38.3836620952    
281.141995012    243.507484759    193.087698347    127.04489191    45.2148436498    
329.942755695    306.532107246    273.316860288    225.41599993    156.146990456    
59.3471289684    355.41408477    339.294171519    314.941973271    276.086198727    
210.248661291    94.3083287434    384.62828487    378.734741266    369.215053977    
351.752934047    312.765253671    81.2680032307    27.5416716667    178.168025006    
132.908916517    82.3207716741    27.9122725379    282.805184654    255.134803096    
221.794050162    182.231016387    136.306362507    84.6049644126    28.7212768795    
325.471146352    305.687839164    288.992052964    280.544588153    261.88441579    
228.791096562    188.95870806    142.047890445    88.5358812288    30.1302729806    
334.460826372    318.586626057    316.328585925    297.727064264    292.816954385    
271.626869606    239.15767765    199.225614306    151.090014225    94.9135975649    
32.4667379386    328.465689466    309.365770436    309.102413461    284.977606364    
253.859540556    214.390060084    165.07121415    105.250597839    274.117729238    
236.42598727    186.738634138    122.494630141    301.219188741    267.923932419    
220.545100821    152.630997201    335.971162654    311.549104607    273.001365974    
208.00655732    383.595925236    377.602354349    368.054745588    350.693457692    
76.9400881566    25.9944011552    78.0552663083    26.3866727162    80.4688104082    
27.2406727941    255.134802954    221.794050072    182.231016327    84.6049643769    
28.721276868    265.469865481    232.75090315    193.041869051    145.793658964    
91.2766837374    31.1607554031    279.587018401    248.225694991    208.92762406    
160.372176724    102.011919082    269.450178963    231.878082999    182.807174088    
119.773425263    297.70913352    264.487352802    217.559675257    150.555368154    
333.786293454    309.401447745    271.127776673    206.698724839    25.0979744473    
25.5040962551    26.386672719    82.3207716598    27.9122725234    261.616371304    
228.816261769    189.322397551    89.1752070442    30.415514807    276.223066748    
244.778904864    205.657860524    157.621470001    100.153556452    266.606286339    
229.170180836    295.578956598    262.451844881    332.464613852    308.134910458    

0.175    0.125    0.125    0.225    0.175    
0.275    0.225    0.325    0.275    0.275    
0.375    0.325    0.325    0.425    0.375    
0.375    0.475    0.425    0.425    0.475    
0.475    0.125    0.125    0.175    0.175    
0.225    0.225    0.275    0.275    0.325    
0.325    0.375    0.375    0.425    0.425    
0.475    0.475    0.125    0.125    0.175    
0.175    0.225    0.225    0.275    0.275    
0.325    0.325    0.375    0.375    0.425    
0.425    0.475    0.475    0.125    0.125    
0.175    0.175    0.225    0.225    0.275    
0.275    0.325    0.325    0.375    0.375    
0.425    0.425    0.475    0.475    0.125    
0.175    0.175    0.225    0.225    0.275    
0.275    0.325    0.325    0.375    0.375    
0.425    0.425    0.475    0.475    0.225    
0.225    0.275    0.275    0.325    0.325    
0.375    0.375    0.425    0.425    0.475    
0.475    0.225    0.225    0.275    0.275    
0.325    0.325    0.375    0.375    0.425    
0.425    0.475    0.475    0.225    0.225    
0.275    0.275    0.325    0.325    0.375    
0.375    0.425    0.425    0.475    0.475    
0.225    0.225    0.275    0.275    0.325    
0.325    0.375    0.375    0.425    0.425    
0.475    0.475    0.225    0.275    0.325    
0.375    0.425    0.475    0.275    0.325    
0.375    0.425    0.475    0.125    0.175    
0.225    0.275    0.325    0.375    0.425    
0.475    0.125    0.175    0.225    0.275    
0.325    0.375    0.425    0.475    0.125    
0.175    0.225    0.275    0.325    0.375    
0.425    0.475    0.275    0.325    0.375    
0.425    0.475    0.275    0.325    0.375    
0.425    0.475    0.275    0.325    0.375    
0.425    0.475    0.225    0.275    0.325    
0.375    0.425    0.475    0.225    0.275    
0.325    0.375    0.425    0.475    0.225    
0.275    0.325    0.375    0.425    0.475    
0.225    0.225    0.275    0.325    0.375    
0.425    0.475    0.125    0.175    0.225    
0.275    0.325    0.375    0.425    0.475    
0.125    0.175    0.225    0.275    0.325    
0.375    0.425    0.475    0.125    0.175    
0.225    0.275    0.325    0.375    0.425    
0.475    0.275    0.325    0.375    0.425    
0.475    0.275    0.325    0.375    0.425    
0.475    0.275    0.325    0.375    0.425    
0.475    0.225    0.275    0.325    0.375    
0.425    0.475    0.225    0.275    0.325    
0.375    0.425    0.475    0.225    0.275    
0.325    0.375    0.425    0.475    0.375    
0.425    0.475    0.125    0.175    0.225    
0.275    0.325    0.375    0.425    0.475    
0.125    0.175    0.225    0.275    0.325    
0.375    0.425    0.475    0.125    0.175    
0.225    0.275    0.325    0.375    0.425    