Title = " tecplot file for 2D Cavity problem " 
variables = "x", "y", "z", "velX", "cellCentroidY" 
Zone T = "nmesh0" N = 798 E = 500 DATAPACKING = BLOCK, VARLOCATION = ([4-5]=CELLCENTERED),  ZONETYPE=FEBRICK 
-0.05    -0.05    -0.05    -0.05    -0.05    
-0.05    -0.05    -0.05    -0.05    -0.05    
-0.05    -0.05    -0.05    -0.05    -0.1    
-0.1    -0.1    -0.1    -0.1    -0.1    
-0.1    -0.1    -0.1    -0.1    -0.1    
-0.1    -0.1    -0.1    -0.1    -0.1    
-0.1    -0.1    -0.1    -0.1    -0.1    
-0.1    -0.1    -0.1    -0.1    -0.1    
-0.1    -0.1    -0.1    -0.1    -0.1    
-0.1    -0.1    -0.1    -0.1    -0.1    
-0.1    -0.1    -0.1    -0.1    -0.1    
-0.1    -0.1    -0.1    -0.1    -0.1    
-0.1    -0.15    -0.15    -0.15    -0.15    
-0.15    -0.15    -0.15    -0.15    -0.15    
-0.15    -0.15    -0.15    -0.15    -0.15    
-0.15    -0.15    -0.15    -0.15    -0.15    
-0.15    -0.15    -0.15    -0.15    -0.15    
-0.15    -0.15    -0.15    -0.15    -0.15    
-0.15    -0.15    -0.15    -0.15    -0.15    
-0.15    -0.15    -0.15    -0.15    -0.15    
-0.15    -0.15    -0.15    -0.15    -0.15    
-0.15    -0.15    -0.15    -0.15    -0.15    
-0.15    -0.15    -0.15    -0.15    -0.15    
-0.15    -0.15    -0.15    -0.15    -0.15    
-0.15    -0.15    -0.15    -0.15    -0.15    
-0.15    -0.15    -0.15    -0.15    -0.15    
-0.15    -0.15    -0.15    -0.15    -0.15    
-0.15    -0.15    -0.15    -0.15    -0.15    
-0.15    -0.15    -0.15    -0.15    -0.2    
-0.2    -0.2    -0.2    -0.2    -0.2    
-0.2    -0.2    -0.2    -0.2    -0.2    
-0.2    -0.2    -0.2    -0.2    -0.2    
-0.2    -0.2    -0.2    -0.2    -0.2    
-0.2    -0.2    -0.2    -0.2    -0.2    
-0.2    -0.2    -0.2    -0.2    -0.2    
-0.2    -0.2    -0.2    -0.2    -0.2    
-0.2    -0.2    -0.2    -0.2    -0.2    
-0.2    -0.2    -0.2    -0.2    -0.2    
-0.2    -0.2    -0.2    -0.2    -0.2    
-0.2    -0.2    -0.2    -0.2    -0.2    
-0.2    -0.2    -0.2    -0.2    -0.2    
-0.2    -0.2    -0.2    -0.2    -0.2    
-0.2    -0.2    -0.2    -0.2    -0.2    
-0.2    -0.2    -0.2    -0.2    -0.2    
-0.2    -0.2    -0.2    -0.2    -0.2    
-0.2    -0.2    -0.2    -0.2    -0.2    
-0.2    -0.2    -0.2    -0.25    -0.25    
-0.25    -0.25    -0.25    -0.25    -0.25    
-0.25    -0.25    -0.25    -0.25    -0.25    
-0.25    -0.25    -0.25    -0.25    -0.25    
-0.25    -0.25    -0.25    -0.25    -0.25    
-0.25    -0.25    -0.25    -0.25    -0.25    
-0.25    -0.25    -0.25    -0.25    -0.25    
-0.25    -0.25    -0.25    -0.25    -0.25    
-0.25    -0.25    -0.25    -0.25    -0.25    
-0.25    -0.25    -0.25    -0.25    -0.25    
-0.25    -0.25    -0.25    -0.25    -0.25    
-0.25    -0.25    -0.25    -0.25    -0.25    
-0.25    -0.25    -0.25    -0.25    -0.25    
-0.25    -0.25    -0.25    -0.25    -0.25    
-0.25    -0.25    -0.25    -0.25    -0.25    
-0.25    -0.25    -0.25    -0.25    -0.25    
-0.25    -0.25    -0.25    -0.25    -0.25    
-0.25    -0.25    -0.25    -0.25    -0.25    
-0.25    -0.25    -0.25    -0.25    -0.25    
-0.25    -0.25    -0.25    -0.3    -0.3    
-0.3    -0.3    -0.3    -0.3    -0.3    
-0.3    -0.3    -0.3    -0.3    -0.3    
-0.3    -0.3    -0.3    -0.3    -0.3    
-0.3    -0.3    -0.3    -0.3    -0.3    
-0.3    -0.3    -0.3    -0.3    -0.3    
-0.3    -0.3    -0.3    -0.3    -0.3    
-0.3    -0.3    -0.3    -0.3    -0.3    
-0.3    -0.3    -0.3    -0.3    -0.3    
-0.3    -0.3    -0.3    -0.3    -0.3    
-0.3    -0.3    -0.3    -0.3    -0.3    
-0.3    -0.3    -0.3    -0.3    -0.3    
-0.3    -0.3    -0.3    -0.3    -0.3    
-0.3    -0.3    -0.3    -0.3    -0.3    
-0.3    -0.3    -0.3    -0.3    -0.3    
-0.3    -0.3    -0.3    -0.3    -0.3    
-0.3    -0.3    -0.3    -0.3    -0.3    
-0.3    -0.3    -0.3    -0.3    -0.3    
-0.3    -0.3    -0.3    -0.3    -0.3    
-0.3    -0.3    -0.3    -0.3    -0.3    
-0.3    -0.3    -0.3    -0.3    -0.3    
-0.35    -0.35    -0.35    -0.35    -0.35    
-0.35    -0.35    -0.35    -0.35    -0.35    
-0.35    -0.35    -0.35    -0.35    -0.35    
-0.35    -0.35    -0.35    -0.35    -0.35    
-0.35    -0.35    -0.35    -0.35    -0.35    
-0.35    -0.35    -0.35    -0.35    -0.35    
-0.35    -0.35    -0.35    -0.35    -0.35    
-0.35    -0.35    -0.35    -0.35    -0.35    
-0.35    -0.35    -0.35    -0.35    -0.35    
-0.35    -0.35    -0.35    -0.35    -0.35    
-0.35    -0.35    -0.35    -0.35    -0.35    
-0.35    -0.35    -0.35    -0.35    -0.35    
-0.35    -0.35    -0.35    -0.35    -0.35    
-0.35    -0.35    -0.35    -0.35    -0.35    
-0.35    -0.35    -0.35    -0.35    -0.35    
-0.35    -0.35    -0.35    -0.35    -0.35    
-0.35    -0.35    -0.35    -0.35    -0.35    
-0.35    -0.35    -0.35    -0.35    -0.35    
-0.35    -0.35    -0.35    -0.35    -0.35    
-0.35    -0.35    -0.35    -0.35    -0.35    
-0.35    -0.35    -0.4    -0.4    -0.4    
-0.4    -0.4    -0.4    -0.4    -0.4    
-0.4    -0.4    -0.4    -0.4    -0.4    
-0.4    -0.4    -0.4    -0.4    -0.4    
-0.4    -0.4    -0.4    -0.4    -0.4    
-0.4    -0.4    -0.4    -0.4    -0.4    
-0.4    -0.4    -0.4    -0.4    -0.4    
-0.4    -0.4    -0.4    -0.4    -0.4    
-0.4    -0.4    -0.4    -0.4    -0.4    
-0.4    -0.4    -0.4    -0.4    -0.4    
-0.4    -0.4    -0.4    -0.4    -0.4    
-0.4    -0.4    -0.4    -0.4    -0.4    
-0.4    -0.4    -0.4    -0.4    -0.4    
-0.4    -0.4    -0.4    -0.4    -0.4    
-0.4    -0.4    -0.4    -0.4    -0.4    
-0.4    -0.4    -0.4    -0.4    -0.4    
-0.4    -0.4    -0.4    -0.4    -0.4    
-0.4    -0.4    -0.4    -0.4    -0.4    
-0.4    -0.4    -0.4    -0.4    -0.4    
-0.4    -0.4    -0.4    -0.45    -0.45    
-0.45    -0.45    -0.45    -0.45    -0.45    
-0.45    -0.45    -0.45    -0.45    -0.45    
-0.45    -0.45    -0.45    -0.45    -0.45    
-0.45    -0.45    -0.45    -0.45    -0.45    
-0.45    -0.45    -0.45    -0.45    -0.45    
-0.45    -0.45    -0.45    -0.45    -0.45    
-0.45    -0.45    -0.45    -0.45    -0.45    
-0.45    -0.45    -0.45    -0.45    -0.45    
-0.45    -0.45    -0.45    -0.45    -0.45    
-0.45    -0.45    -0.45    -0.45    -0.45    
-0.45    -0.45    -0.45    -0.45    -0.45    
-0.45    -0.45    -0.45    -0.45    -0.45    
-0.45    -0.45    -0.45    -0.45    -0.45    
-0.45    -0.45    -0.45    -0.45    -0.45    
-0.45    -0.45    -0.45    -0.45    -0.45    
-0.45    -0.45    -0.45    -0.45    -0.45    
-0.45    -0.45    -0.45    -0.45    -0.45    
-0.45    -0.5    -0.5    -0.5    -0.5    
-0.5    -0.5    -0.5    -0.5    -0.5    
-0.5    -0.5    -0.5    -0.5    -0.5    
-0.5    -0.5    -0.5    -0.5    -0.5    
-0.5    -0.5    -0.5    -0.5    -0.5    
-0.5    -0.5    -0.5    -0.5    -0.5    
-0.5    -0.5    -0.5    -0.5    -0.5    
-0.5    -0.5    -0.5    -0.5    -0.5    
-0.5    -0.5    -0.5    -0.5    -0.5    
-0.5    -0.5    -0.5    -0.5    -0.5    
-0.5    -0.5    -0.5    -0.5    -0.5    
-0.5    -0.5    -0.5    -0.5    -0.5    
-0.5    -0.5    -0.5    -0.5    -0.5    
-0.5    -0.5    -0.5    -0.5    -0.5    
-0.5    -0.5    -0.5    -0.5    -0.5    
-0.5    -0.5    -0.5    -0.5    -0.5    
-0.5    -0.5    -0.5    
-0.15    -0.1    -0.1    -0.15    -0.05    
-0.05    -0.2    -0.15    -0.2    -0.1    
-0.05    -0.2    -0.15    -0.1    -0.1    
-0.05    -0.05    -0.1    -0.15    -0.1    
-0.1    -0.15    -0.05    -0.05    -0.25    
-0.2    -0.2    -0.25    -0.15    -0.1    
-0.05    -0.25    -0.2    -0.15    -0.1    
-0.05    -0.2    -0.25    -0.15    -0.1    
-0.05    0.0    0.0    0.05    0.05    
-0.2    -0.25    -0.15    -0.1    -0.05    
0.0    0.05    -0.3    -0.25    -0.3    
-0.2    -0.15    -0.1    -0.05    0.0    
0.05    -0.05    0.0    -4.1633363423e-18    -0.05    
0.05    0.05    0.1    0.1    0.15    
0.15    -0.15    -0.1    -0.1    -0.15    
-0.05    0.0    0.05    0.1    0.15    
-0.2    -0.15    -0.2    -0.1    -0.05    
0.0    -0.2    -0.15    -0.1    -0.05    
0.0    -0.25    -0.2    -0.25    -0.15    
-0.1    -0.05    8.3266726847e-18    0.05    0.05    
-0.2    -0.25    -0.15    -0.1    -0.05    
-0.25    -0.2    -0.15    -0.1    -0.05    
-0.25    -0.2    -0.15    -0.1    -0.05    
0.0    0.05    -0.25    -0.2    -0.15    
-0.1    -0.05    0.0    0.05    0.1    
0.1    -0.25    -0.3    -0.2    -0.15    
-0.1    -0.05    -2.7755575616e-17    0.05    0.1    
-0.3    -0.25    -0.2    -0.15    -0.1    
-0.05    -2.7755575616e-17    0.05    0.1    -5.5511151231e-18    
-0.05    0.05    0.1    0.15    -0.1    
-0.15    -0.05    0.0    0.05    0.1    
0.15    -0.15    -0.2    -0.1    -0.05    
0.0    0.05    0.1    0.15    -0.2    
-0.15    -0.1    -0.05    0.0    -0.2    
-0.25    -0.15    -0.1    -0.05    0.0    
0.05    -0.25    -0.2    -0.15    -0.1    
-0.05    1.1102230246e-17    0.05    -0.25    -0.2    
-0.15    -0.1    -0.05    0.0    0.05    
-0.25    -0.2    -0.15    -0.1    -0.05    
0.0    0.05    0.1    0.1    -0.25    
-0.2    -0.15    -0.1    -0.05    0.0    
0.05    0.1    -0.25    -0.2    -0.15    
-0.1    -0.05    0.0    0.05    0.1    
-0.25    -0.3    -0.2    -0.15    -0.1    
-0.05    0.0    0.05    0.1    -0.3    
-0.25    -0.2    -0.15    -0.1    -0.05    
0.0    0.05    0.1    -0.1    -0.05    
-0.05    -0.1    -6.9388939039e-18    0.0    0.05    
0.05    0.1    0.15    -0.1    -0.15    
-0.05    0.0    0.05    0.1    0.15    
-0.15    -0.2    -0.2    -0.1    -0.05    
0.0    0.05    0.1    0.15    -0.2    
-0.15    -0.1    -0.05    0.0    0.05    
0.1    -0.2    -0.25    -0.15    -0.1    
-0.05    0.0    0.05    -0.25    -0.2    
-0.15    -0.1    -0.05    1.3877787808e-17    0.05    
-0.25    -0.2    -0.15    -0.1    -0.05    
0.0    0.05    0.1    0.1    -0.25    
-0.2    -0.15    -0.1    -0.05    0.0    
0.05    0.1    -0.2    -0.15    -0.1    
-0.05    0.0    0.05    0.1    -0.2    
-0.25    -0.15    -0.1    -0.05    0.0    
0.05    0.1    -0.25    -0.2    -0.15    
-0.1    -0.05    0.0    0.05    0.1    
-0.25    -0.2    -0.15    -0.1    -0.05    
0.0    0.05    0.1    -0.05    -0.1    
0.0    0.05    -0.1    -0.05    -8.3266726847e-18    
0.05    0.1    0.15    -0.15    -0.2    
-0.15    -0.2    -0.1    -0.05    0.0    
0.05    0.1    0.15    -0.2    -0.15    
-0.1    -0.05    0.0    0.05    0.1    
0.15    -0.2    -0.15    -0.1    -0.05    
0.0    0.05    0.1    -0.2    -0.25    
-0.15    -0.1    -0.05    0.0    0.05    
0.1    -0.25    -0.2    -0.15    -0.1    
-0.05    1.6653345369e-17    0.05    0.1    -0.25    
-0.2    -0.15    -0.1    -0.05    0.0    
0.05    0.1    -0.25    -0.2    -0.15    
-0.1    -0.05    0.0    0.05    0.1    
-0.2    -0.25    -0.15    -0.1    -0.05    
0.0    0.05    0.1    -0.2    -0.25    
-0.15    -0.1    -0.05    0.0    0.05    
0.1    -0.25    -0.2    -0.15    -0.1    
-0.05    0.0    0.05    0.1    0.15    
0.15    -0.25    -0.2    -0.15    -0.1    
-0.05    0.0    0.05    0.1    0.15    
-0.05    -0.1    0.0    0.05    -0.15    
-0.2    -0.1    -0.15    -0.05    -9.7144514655e-18    
0.05    0.1    0.15    -0.2    -0.15    
-0.1    -0.05    0.0    0.05    0.1    
0.15    -0.2    -0.15    -0.1    -0.05    
0.0    0.05    0.1    0.15    -0.2    
-0.15    -0.1    -0.05    0.0    0.05    
0.1    -0.2    -0.15    -0.1    -0.05    
0.0    0.05    0.1    -0.2    -0.15    
-0.1    -0.05    1.9428902931e-17    0.05    0.1    
-0.15    -0.2    -0.1    -0.05    0.0    
0.05    0.1    -0.2    -0.25    -0.15    
-0.1    -0.05    0.0    0.05    0.1    
-0.25    -0.2    -0.15    -0.1    -0.05    
0.0    0.05    0.1    0.15    0.15    
-0.25    -0.2    -0.15    -0.1    -0.05    
0.0    0.05    0.1    0.15    -0.25    
-0.2    -0.15    -0.1    -0.05    0.0    
0.05    0.1    0.15    -0.25    -0.2    
-0.15    -0.1    -0.05    0.0    0.05    
0.1    0.15    -0.1    -0.15    -0.05    
0.0    -0.15    -0.2    -0.1    -0.05    
-1.1102230246e-17    -0.2    -0.15    -0.1    -0.05    
0.0    0.05    0.05    -0.2    -0.15    
-0.1    -0.05    0.0    0.05    0.1    
-0.15    -0.1    -0.05    0.0    0.05    
0.1    -0.1    -0.15    -0.05    0.0    
0.05    0.1    -0.1    -0.15    -0.05    
2.2204460493e-17    0.05    0.1    -0.15    -0.2    
-0.1    -0.05    0.0    0.05    0.1    
-0.2    -0.25    -0.15    -0.1    -0.05    
0.0    0.05    0.1    0.15    -0.25    
-0.2    -0.15    -0.1    -0.05    0.0    
0.05    0.1    0.15    -0.25    -0.2    
-0.15    -0.1    -0.05    0.0    0.05    
0.1    0.15    -0.25    -0.3    -0.3    
-0.2    -0.15    -0.1    -0.05    0.0    
0.05    0.1    0.15    -0.25    -0.3    
-0.2    -0.15    -0.1    -0.05    0.0    
0.05    0.1    0.15    -0.1    -0.15    
-0.05    -1.2490009027e-17    0.05    -0.15    -0.1    
-0.05    0.0    0.05    -0.15    -0.1    
-0.05    0.0    0.05    0.1    -0.15    
-0.1    -0.05    0.0    0.05    0.1    
-0.15    -0.1    -0.05    0.0    0.05    
0.1    -0.15    -0.1    -0.05    2.4980018054e-17    
0.05    0.1    -0.15    -0.2    -0.1    
-0.05    0.0    0.05    0.1    -0.2    
-0.25    -0.15    -0.1    -0.05    0.0    
0.05    0.1    -0.25    -0.2    -0.15    
-0.1    -0.05    0.0    0.05    0.1    
0.15    -0.25    -0.3    -0.2    -0.15    
-0.1    -0.05    0.0    0.05    0.1    
0.15    -0.3    -0.25    -0.2    -0.15    
-0.1    -0.05    0.0    0.05    0.1    
0.15    -0.3    -0.25    -0.2    -0.15    
-0.1    -0.05    0.0    0.05    0.1    
0.15    -0.05    -0.1    -1.3877787808e-17    -0.1    
-0.15    -0.05    0.0    -0.15    -0.1    
-0.05    0.0    0.05    -0.15    -0.1    
-0.05    0.0    0.05    0.1    -0.15    
-0.1    -0.05    0.0    0.05    0.1    
-0.15    -0.1    -0.05    2.7755575616e-17    0.05    
0.1    -0.15    -0.2    -0.1    -0.05    
0.0    0.05    0.1    -0.2    -0.25    
-0.15    -0.1    -0.05    0.0    0.05    
0.1    -0.25    -0.2    -0.15    -0.1    
-0.05    0.0    0.05    0.1    -0.25    
-0.3    -0.2    -0.15    -0.1    -0.05    
0.0    0.05    0.1    -0.3    -0.25    
-0.2    -0.15    -0.1    -0.05    0.0    
0.05    0.1    0.15    -0.3    -0.25    
-0.2    -0.15    -0.1    -0.05    0.0    
0.05    0.1    0.15    
-0.35    -0.35    -0.3    -0.3    -0.35    
-0.3    -0.4    -0.4    -0.35    -0.4    
-0.4    -0.45    -0.45    -0.45    -0.1    
-0.1    -0.05    -0.05    -0.25    -0.25    
-0.2    -0.2    -0.25    -0.2    -0.3    
-0.3    -0.25    -0.25    -0.3    -0.3    
-0.3    -0.35    -0.35    -0.35    -0.35    
-0.35    -0.4    -0.4    -0.4    -0.4    
-0.4    -0.4    -0.35    -0.4    -0.35    
-0.45    -0.45    -0.45    -0.45    -0.45    
-0.45    -0.45    -0.5    -0.5    -0.45    
-0.5    -0.5    -0.5    -0.5    -0.5    
-0.5    0.0    0.0    0.05    0.05    
0.0    0.05    0.0    0.05    0.0    
0.05    -0.05    -0.05    0.0    0.0    
-0.05    -0.05    -0.05    -0.05    -0.05    
-0.1    -0.1    -0.05    -0.1    -0.1    
-0.1    -0.15    -0.15    -0.15    -0.15    
-0.15    -0.2    -0.2    -0.15    -0.2    
-0.2    -0.2    -0.2    -0.2    -0.15    
-0.25    -0.25    -0.25    -0.25    -0.25    
-0.3    -0.3    -0.3    -0.3    -0.3    
-0.35    -0.35    -0.35    -0.35    -0.35    
-0.35    -0.35    -0.4    -0.4    -0.4    
-0.4    -0.4    -0.4    -0.4    -0.4    
-0.35    -0.45    -0.45    -0.45    -0.45    
-0.45    -0.45    -0.45    -0.45    -0.45    
-0.5    -0.5    -0.5    -0.5    -0.5    
-0.5    -0.5    -0.5    -0.5    0.05    
0.05    0.05    0.05    0.05    0.0    
0.0    0.0    0.0    0.0    0.0    
0.0    -0.05    -0.05    -0.05    -0.05    
-0.05    -0.05    -0.05    -0.05    -0.1    
-0.1    -0.1    -0.1    -0.1    -0.15    
-0.15    -0.15    -0.15    -0.15    -0.15    
-0.15    -0.2    -0.2    -0.2    -0.2    
-0.2    -0.2    -0.2    -0.25    -0.25    
-0.25    -0.25    -0.25    -0.25    -0.25    
-0.3    -0.3    -0.3    -0.3    -0.3    
-0.3    -0.3    -0.3    -0.25    -0.35    
-0.35    -0.35    -0.35    -0.35    -0.35    
-0.35    -0.35    -0.4    -0.4    -0.4    
-0.4    -0.4    -0.4    -0.4    -0.4    
-0.45    -0.45    -0.45    -0.45    -0.45    
-0.45    -0.45    -0.45    -0.45    -0.5    
-0.5    -0.5    -0.5    -0.5    -0.5    
-0.5    -0.5    -0.5    0.05    0.05    
0.1    0.1    0.05    0.1    0.05    
0.1    0.05    0.05    0.0    0.0    
0.0    0.0    0.0    0.0    0.0    
-0.05    -0.05    0.0    -0.05    -0.05    
-0.05    -0.05    -0.05    -0.05    -0.1    
-0.1    -0.1    -0.1    -0.1    -0.1    
-0.1    -0.15    -0.15    -0.15    -0.15    
-0.15    -0.15    -0.15    -0.2    -0.2    
-0.2    -0.2    -0.2    -0.2    -0.2    
-0.25    -0.25    -0.25    -0.25    -0.25    
-0.25    -0.25    -0.25    -0.2    -0.3    
-0.3    -0.3    -0.3    -0.3    -0.3    
-0.3    -0.3    -0.35    -0.35    -0.35    
-0.35    -0.35    -0.35    -0.35    -0.4    
-0.4    -0.4    -0.4    -0.4    -0.4    
-0.4    -0.4    -0.45    -0.45    -0.45    
-0.45    -0.45    -0.45    -0.45    -0.45    
-0.5    -0.5    -0.5    -0.5    -0.5    
-0.5    -0.5    -0.5    0.1    0.1    
0.1    0.1    0.05    0.05    0.05    
0.05    0.05    0.05    0.0    0.0    
0.05    0.05    0.0    0.0    0.0    
0.0    0.0    0.0    -0.05    -0.05    
-0.05    -0.05    -0.05    -0.05    -0.05    
-0.05    -0.1    -0.1    -0.1    -0.1    
-0.1    -0.1    -0.1    -0.15    -0.15    
-0.15    -0.15    -0.15    -0.15    -0.15    
-0.15    -0.2    -0.2    -0.2    -0.2    
-0.2    -0.2    -0.2    -0.2    -0.25    
-0.25    -0.25    -0.25    -0.25    -0.25    
-0.25    -0.25    -0.3    -0.3    -0.3    
-0.3    -0.3    -0.3    -0.3    -0.3    
-0.35    -0.35    -0.35    -0.35    -0.35    
-0.35    -0.35    -0.35    -0.4    -0.4    
-0.4    -0.4    -0.4    -0.4    -0.4    
-0.4    -0.45    -0.45    -0.45    -0.45    
-0.45    -0.45    -0.45    -0.45    -0.45    
-0.4    -0.5    -0.5    -0.5    -0.5    
-0.5    -0.5    -0.5    -0.5    -0.5    
0.1    0.1    0.1    0.1    0.05    
0.05    0.05    0.1    0.05    0.05    
0.05    0.05    0.05    0.0    0.0    
0.0    0.0    0.0    0.0    0.0    
0.0    -0.05    -0.05    -0.05    -0.05    
-0.05    -0.05    -0.05    -0.05    -0.1    
-0.1    -0.1    -0.1    -0.1    -0.1    
-0.1    -0.15    -0.15    -0.15    -0.15    
-0.15    -0.15    -0.15    -0.2    -0.2    
-0.2    -0.2    -0.2    -0.2    -0.2    
-0.25    -0.25    -0.25    -0.25    -0.25    
-0.25    -0.25    -0.3    -0.3    -0.3    
-0.3    -0.3    -0.3    -0.3    -0.3    
-0.35    -0.35    -0.35    -0.35    -0.35    
-0.35    -0.35    -0.35    -0.35    -0.3    
-0.4    -0.4    -0.4    -0.4    -0.4    
-0.4    -0.4    -0.4    -0.4    -0.45    
-0.45    -0.45    -0.45    -0.45    -0.45    
-0.45    -0.45    -0.45    -0.5    -0.5    
-0.5    -0.5    -0.5    -0.5    -0.5    
-0.5    -0.5    0.1    0.1    0.1    
0.1    0.05    0.05    0.05    0.05    
0.05    0.0    0.0    0.0    0.0    
0.0    0.0    0.05    -0.05    -0.05    
-0.05    -0.05    -0.05    -0.05    -0.05    
-0.1    -0.1    -0.1    -0.1    -0.1    
-0.1    -0.15    -0.15    -0.15    -0.15    
-0.15    -0.15    -0.2    -0.2    -0.2    
-0.2    -0.2    -0.2    -0.25    -0.25    
-0.25    -0.25    -0.25    -0.25    -0.25    
-0.3    -0.3    -0.3    -0.3    -0.3    
-0.3    -0.3    -0.3    -0.3    -0.35    
-0.35    -0.35    -0.35    -0.35    -0.35    
-0.35    -0.35    -0.35    -0.4    -0.4    
-0.4    -0.4    -0.4    -0.4    -0.4    
-0.4    -0.4    -0.45    -0.45    -0.4    
-0.45    -0.45    -0.45    -0.45    -0.45    
-0.45    -0.45    -0.45    -0.5    -0.5    
-0.5    -0.5    -0.5    -0.5    -0.5    
-0.5    -0.5    -0.5    0.05    0.05    
0.05    0.05    0.05    0.0    0.0    
0.0    0.0    0.0    -0.05    -0.05    
-0.05    -0.05    -0.05    -0.05    -0.1    
-0.1    -0.1    -0.1    -0.1    -0.1    
-0.15    -0.15    -0.15    -0.15    -0.15    
-0.15    -0.2    -0.2    -0.2    -0.2    
-0.2    -0.2    -0.25    -0.25    -0.25    
-0.25    -0.25    -0.25    -0.25    -0.3    
-0.3    -0.3    -0.3    -0.3    -0.3    
-0.3    -0.3    -0.35    -0.35    -0.35    
-0.35    -0.35    -0.35    -0.35    -0.35    
-0.35    -0.4    -0.4    -0.4    -0.4    
-0.4    -0.4    -0.4    -0.4    -0.4    
-0.4    -0.45    -0.45    -0.45    -0.45    
-0.45    -0.45    -0.45    -0.45    -0.45    
-0.45    -0.5    -0.5    -0.5    -0.5    
-0.5    -0.5    -0.5    -0.5    -0.5    
-0.5    0.05    0.05    0.05    0.0    
0.0    0.0    0.0    -0.05    -0.05    
-0.05    -0.05    -0.05    -0.1    -0.1    
-0.1    -0.1    -0.1    -0.1    -0.15    
-0.15    -0.15    -0.15    -0.15    -0.15    
-0.2    -0.2    -0.2    -0.2    -0.2    
-0.2    -0.25    -0.25    -0.25    -0.25    
-0.25    -0.25    -0.25    -0.3    -0.3    
-0.3    -0.3    -0.3    -0.3    -0.3    
-0.3    -0.35    -0.35    -0.35    -0.35    
-0.35    -0.35    -0.35    -0.35    -0.4    
-0.4    -0.4    -0.4    -0.4    -0.4    
-0.4    -0.4    -0.4    -0.45    -0.45    
-0.45    -0.45    -0.45    -0.45    -0.45    
-0.45    -0.45    -0.45    -0.5    -0.5    
-0.5    -0.5    -0.5    -0.5    -0.5    
-0.5    -0.5    -0.5    
374.465275899    379.882333483    385.173311002    380.79763819    381.145699165    
375.595399802    388.415245023    392.907865921    388.952765935    390.913766117    
385.846868572    381.978270287    393.236684529    391.326074773    359.480848722    
356.424195444    365.159778626    372.467370052    376.306123745    374.433515528    
369.951930815    367.591744169    381.449559239    385.651797325    388.404503779    
386.706667948    384.99036071    382.795687723    377.995553142    372.044666877    
391.474554183    389.256403012    386.078435508    382.164742935    377.291267731    
394.784615276    392.100522521    389.752882653    386.853151256    377.114189019    
388.939380387    383.22808488    370.944990454    385.926752876    378.649031666    
382.085152551    372.807622677    398.244541848    395.167375189    397.722581051    
393.726204241    397.077577493    391.942171564    396.270594232    389.705277553    
395.24979849    386.868394546    393.944234358    383.229523307    398.673467352    
398.771797723    398.373345058    397.887358959    397.285041778    396.528627354    
395.56723427    394.330306215    335.230039485    348.088992589    348.088992481    
353.170568994    319.484964096    335.230039363    341.378764158    300.268996619    
319.484964048    326.8212527    300.268996554    308.868236664    358.577793973    
367.140938766    367.87716352    370.490187524    362.727211338    349.180653229    
353.170568953    341.378764098    326.821252622    308.868236585    374.747054844    
375.924012365    377.354207433    369.346073624    371.150231635    361.287515783    
363.53777038    351.3722401    354.151794411    377.674607946    378.408497402    
371.538182691    372.467370097    363.995310098    365.159778694    354.675158212    
356.122340782    382.707569542    384.50910393    384.509103914    379.976935477    
379.976935496    374.433515573    367.591744276    343.123672245    359.093743615    
348.491156186    386.122074695    382.040200604    377.031307778    370.823450725    
388.090007237    384.566975141    380.228582138    374.827117206    387.510536085    
383.972411808    379.547278652    390.806216478    388.184156931    384.891510811    
380.708465614    365.278584252    375.333325004    378.503184481    368.341982669    
395.669545843    394.370752557    392.757279784    390.725006598    388.132547655    
384.782479452    392.716709637    380.390728427    398.542341711    398.104340589    
397.559557075    396.872243649    395.993513289    394.854441942    393.354500969    
359.506082676    349.12366748    336.184475778    320.029413375    374.607811946    
367.859736174    359.506082673    349.123667458    336.184475731    320.029413273    
380.544888523    375.17469114    368.556757613    360.351141063    381.449559184    
376.306123785    369.951930993    362.04885892    386.706667887    382.795687693    
377.995553186    372.044667029    363.071673773    364.610388657    353.334489477    
355.265321036    388.090007214    384.566975107    380.228582143    374.827117261    
368.042307705    368.042307793    359.454408981    359.454409057    389.778128359    
386.736837132    382.978127807    378.276417212    373.955615245    372.334642718    
348.507500381    366.822141486    364.754694163    357.634337413    354.994942504    
389.265408251    386.199174131    382.345749155    377.446064733    371.14488088    
362.944907464    392.097289031    389.824371455    386.956072184    383.288763338    
378.537258179    372.291298283    396.282671196    395.160928438    393.76203397    
391.991180141    389.717426438    386.754310391    382.827556958    398.748692629    
398.370373816    397.897993727    397.299001232    396.528125506    395.520293671    
394.178530232    360.351141136    368.556757687    367.859736145    374.465275934    
350.132704675    367.710648168    359.236083178    373.90081741    367.025299738    
358.416310213    347.580337585    333.869411786    380.090622261    383.892197745    
379.423822838    373.900817449    367.025299759    350.132704608    358.416310216    
337.367707813    347.58033755    333.869411717    384.259261657    379.882333453    
374.465275983    367.710648203    352.169335884    359.2360832    348.543609929    
384.990360645    380.797638181    375.595399923    369.088016219    360.891567525    
386.078435431    382.164742904    377.291267841    371.167433601    363.410281735    
383.972411773    379.547278699    373.955615358    348.507500415    366.822141611    
357.634337497    389.265408216    386.199174109    382.345749163    377.446064769    
371.144880923    362.944907491    391.3110168    388.808976336    385.649488024    
381.606737097    376.364219281    369.466874418    393.602665307    391.747502485    
389.394858194    386.367292877    382.410971184    377.151349507    396.994727335    
396.082450074    394.940450272    393.487540418    391.609631595    389.140847644    
385.831128105    398.988356625    398.680661335    398.294989991    397.803465599    
397.166643913    396.326647628    395.195111371    381.145699199    376.098072942    
379.423822805    383.892197734    388.145400425    384.835953671    380.72995251    
375.59264026    388.145400432    384.835953698    380.72995254    375.592640282    
385.173310961    381.145699252    376.098073017    369.721658767    350.500697582    
361.600653378    381.978270347    377.114189156    370.9449906    353.507603866    
363.049752715    383.228084907    378.649031797    372.807622828    365.278584335    
388.184156867    384.891510817    380.708465688    375.333325097    368.341982729    
392.097288994    389.824371419    386.956072181    383.288763365    378.537258214    
372.291298306    393.320977449    395.088200945    395.088200941    393.602665289    
391.747502472    389.394858192    386.367292884    382.410971195    377.151349521    
396.387635651    395.289532516    393.913693335    392.161253163    389.892795849    
386.904859604    382.889625457    397.789695423    397.115267759    396.26818468    
395.185656698    393.778038275    391.912396964    381.28854238    389.383360786    
393.630953038    385.859077558    399.255945233    399.028458836    398.742358997    
398.376083634    397.898637062    397.263636793    396.398520595    395.183887725    
385.173310923    390.707281767    388.174652019    384.99371296    390.707281787    
388.174652047    384.993712982    390.913766101    388.429312698    385.303602439    
381.333989244    376.240298613    388.939380423    385.926752966    382.085152644    
377.131425289    389.705277566    386.868394618    383.229523396    378.503184542    
392.757279741    390.7250066    388.132547695    384.782479503    380.390728466    
395.160928408    393.762033943    391.991180138    389.717426454    386.754310415    
382.82755698    396.994727326    396.082450056    394.940450259    393.487540416    
391.609631603    389.140847655    370.018199659    385.83112811    377.363472546    
397.789695418    397.115267753    396.268184677    395.185656698    393.778038277    
391.912396966    389.383360786    385.859077554    398.647536517    398.233285017    
397.71168101    397.042840009    396.169111479    395.003638674    393.40941604    
391.158841016    399.544713067    399.404978525    399.228795836    399.002467081    
398.706056815    398.309255301    397.763647483    396.987319168    396.013000263    
380.962326969    394.93534325    396.86923043    396.013000275    394.935343259    
391.326074729    396.938750635    396.098775942    395.03977375    393.690896093    
391.942171504    397.077577481    396.270594246    395.24979852    393.944234386    
392.253487215    397.28504176    396.528627359    395.567234292    394.330306241    
392.716709657    397.55955706    396.87224365    395.993513301    394.854441959    
393.354500984    398.370373804    397.897993717    397.299001231    396.528125512    
395.52029368    394.17853024    398.988356621    398.680661328    398.294989986    
397.803465599    397.166643916    396.326647631    395.195111372    399.25594523    
399.028458834    398.742358996    398.376083634    397.898637063    397.263636793    
396.398520593    398.983117113    399.657798134    399.657798134    399.544713067    
399.404978525    399.228795835    399.002467082    398.706056815    398.3092553    
397.763647482    399.884841431    399.84673306    399.799596918    399.740085233    
399.663493272    399.56292678    399.427807333    399.241021277    398.973067917    

-0.075    -0.125    -0.125    -0.125    -0.075    
-0.075    -0.175    -0.175    -0.175    -0.125    
-0.125    -0.075    -0.175    -0.125    -0.075    
-0.075    -0.075    -0.125    -0.125    -0.125    
-0.075    -0.075    -0.175    -0.225    -0.225    
-0.225    -0.175    -0.175    -0.125    -0.075    
-0.225    -0.225    -0.175    -0.125    -0.075    
-0.225    -0.225    -0.175    -0.125    -0.025    
-0.075    -0.075    0.025    -0.025    -0.025    
0.025    0.025    -0.225    -0.225    -0.175    
-0.175    -0.125    -0.125    -0.075    -0.075    
-0.025    -0.025    0.025    0.025    -0.275    