Title = " tecplot file for 2D Cavity problem " 
variables = "x", "y", "z", "velX", "cellCentroidY" 
Zone T = "nmesh0" N = 733 E = 500 DATAPACKING = BLOCK, VARLOCATION = ([4-5]=CELLCENTERED), ZONETYPE=FEBRICK
0.0    0.0    0.0    0.0    -2.7755575616e-17    
-2.7755575616e-17    0.0    0.0    0.0    0.0    
2.7755575616e-17    2.7755575616e-17    0.0    0.0    -2.7755575616e-17    
-2.7755575616e-17    0.0    0.0    0.0    0.0    
0.0    0.0    -2.7755575616e-17    0.0    0.0    
2.7755575616e-17    0.0    -2.7755575616e-17    0.0    0.0    
0.0    0.0    -2.7755575616e-17    0.0    0.0    
2.7755575616e-17    0.0    -2.7755575616e-17    0.0    0.0    
0.0    0.0    -2.7755575616e-17    0.0    0.0    
2.7755575616e-17    0.0    -2.7755575616e-17    0.0    0.0    
0.0    0.0    -1.3877787808e-17    0.0    6.9388939039e-18    
2.0816681712e-17    0.0    -2.0816681712e-17    -1.0408340856e-17    0.0    
-0.05    -0.05    -0.05    -0.05    -0.05    
-0.05    -0.05    -0.05    -0.05    -0.05    
-0.05    -0.05    -0.05    -0.05    -0.05    
-0.05    -0.05    -0.05    -0.05    -0.05    
-0.05    -0.05    -0.05    -0.05    -0.05    
-0.05    -0.05    -0.05    -0.05    -0.05    
-0.05    -0.05    -0.05    -0.05    -0.05    
-0.05    -0.05    -0.05    -0.05    -0.05    
-0.05    -0.05    -0.05    -0.05    -0.05    
-0.05    -0.05    -0.05    -0.05    -0.05    
-0.05    -0.05    -0.05    -0.05    -0.05    
-0.05    -0.05    -0.05    -0.05    -0.05    
-0.1    -0.1    -0.1    -0.1    -0.1    
-0.1    -0.1    -0.1    -0.1    -0.1    
-0.1    -0.1    -0.1    -0.1    -0.1    
-0.1    -0.1    -0.1    -0.1    -0.1    
-0.1    -0.1    -0.1    -0.1    -0.1    
-0.1    -0.1    -0.1    -0.1    -0.1    
-0.1    -0.1    -0.1    -0.1    -0.1    
-0.1    -0.1    -0.1    -0.1    -0.1    
-0.1    -0.1    -0.1    -0.1    -0.1    
-0.1    -0.1    -0.1    -0.1    -0.1    
-0.1    -0.1    -0.1    -0.1    -0.1    
-0.1    -0.1    -0.1    -0.1    -0.1    
-0.15    -0.15    -0.15    -0.15    -0.15    
-0.15    -0.15    -0.15    -0.15    -0.15    
-0.15    -0.15    -0.15    -0.15    -0.15    
-0.15    -0.15    -0.15    -0.15    -0.15    
-0.15    -0.15    -0.15    -0.15    -0.15    
-0.15    -0.15    -0.15    -0.15    -0.15    
-0.15    -0.15    -0.15    -0.15    -0.15    
-0.15    -0.15    -0.15    -0.15    -0.15    
-0.15    -0.15    -0.15    -0.15    -0.15    
-0.15    -0.15    -0.15    -0.15    -0.15    
-0.15    -0.15    -0.15    -0.15    -0.15    
-0.15    -0.15    -0.15    -0.15    -0.15    
-0.15    -0.15    -0.15    -0.15    -0.15    
-0.2    -0.2    -0.2    -0.2    -0.2    
-0.2    -0.2    -0.2    -0.2    -0.2    
-0.2    -0.2    -0.2    -0.2    -0.2    
-0.2    -0.2    -0.2    -0.2    -0.2    
-0.2    -0.2    -0.2    -0.2    -0.2    
-0.2    -0.2    -0.2    -0.2    -0.2    
-0.2    -0.2    -0.2    -0.2    -0.2    
-0.2    -0.2    -0.2    -0.2    -0.2    
-0.2    -0.2    -0.2    -0.2    -0.2    
-0.2    -0.2    -0.2    -0.2    -0.2    
-0.2    -0.2    -0.2    -0.2    -0.2    
-0.2    -0.2    -0.2    -0.2    -0.2    
-0.2    -0.2    -0.2    -0.2    -0.2    
-0.2    -0.25    -0.25    -0.25    -0.25    
-0.25    -0.25    -0.25    -0.25    -0.25    
-0.25    -0.25    -0.25    -0.25    -0.25    
-0.25    -0.25    -0.25    -0.25    -0.25    
-0.25    -0.25    -0.25    -0.25    -0.25    
-0.25    -0.25    -0.25    -0.25    -0.25    
-0.25    -0.25    -0.25    -0.25    -0.25    
-0.25    -0.25    -0.25    -0.25    -0.25    
-0.25    -0.25    -0.25    -0.25    -0.25    
-0.25    -0.25    -0.25    -0.25    -0.25    
-0.25    -0.25    -0.25    -0.25    -0.25    
-0.25    -0.25    -0.25    -0.25    -0.25    
-0.25    -0.25    -0.25    -0.25    -0.25    
-0.25    -0.25    -0.3    -0.3    -0.3    
-0.3    -0.3    -0.3    -0.3    -0.3    
-0.3    -0.3    -0.3    -0.3    -0.3    
-0.3    -0.3    -0.3    -0.3    -0.3    
-0.3    -0.3    -0.3    -0.3    -0.3    
-0.3    -0.3    -0.3    -0.3    -0.3    
-0.3    -0.3    -0.3    -0.3    -0.3    
-0.3    -0.3    -0.3    -0.3    -0.3    
-0.3    -0.3    -0.3    -0.3    -0.3    
-0.3    -0.3    -0.3    -0.3    -0.3    
-0.3    -0.3    -0.3    -0.3    -0.3    
-0.3    -0.3    -0.3    -0.3    -0.3    
-0.3    -0.3    -0.3    -0.3    -0.3    
-0.3    -0.3    -0.3    -0.3    -0.3    
-0.3    -0.3    -0.3    -0.3    -0.35    
-0.35    -0.35    -0.35    -0.35    -0.35    
-0.35    -0.35    -0.35    -0.35    -0.35    
-0.35    -0.35    -0.35    -0.35    -0.35    
-0.35    -0.35    -0.35    -0.35    -0.35    
-0.35    -0.35    -0.35    -0.35    -0.35    
-0.35    -0.35    -0.35    -0.35    -0.35    
-0.35    -0.35    -0.35    -0.35    -0.35    
-0.35    -0.35    -0.35    -0.35    -0.35    
-0.35    -0.35    -0.35    -0.35    -0.35    
-0.35    -0.35    -0.35    -0.35    -0.35    
-0.35    -0.35    -0.35    -0.35    -0.35    
-0.35    -0.35    -0.35    -0.35    -0.35    
-0.35    -0.35    -0.35    -0.35    -0.35    
-0.35    -0.35    -0.35    -0.35    -0.35    
-0.35    -0.4    -0.4    -0.4    -0.4    
-0.4    -0.4    -0.4    -0.4    -0.4    
-0.4    -0.4    -0.4    -0.4    -0.4    
-0.4    -0.4    -0.4    -0.4    -0.4    
-0.4    -0.4    -0.4    -0.4    -0.4    
-0.4    -0.4    -0.4    -0.4    -0.4    
-0.4    -0.4    -0.4    -0.4    -0.4    
-0.4    -0.4    -0.4    -0.4    -0.4    
-0.4    -0.4    -0.4    -0.4    -0.4    
-0.4    -0.4    -0.4    -0.4    -0.4    
-0.4    -0.4    -0.4    -0.4    -0.4    
-0.4    -0.4    -0.4    -0.4    -0.4    
-0.4    -0.4    -0.4    -0.4    -0.4    
-0.4    -0.4    -0.4    -0.4    -0.4    
-0.4    -0.4    -0.4    -0.45    -0.45    
-0.45    -0.45    -0.45    -0.45    -0.45    
-0.45    -0.45    -0.45    -0.45    -0.45    
-0.45    -0.45    -0.45    -0.45    -0.45    
-0.45    -0.45    -0.45    -0.45    -0.45    
-0.45    -0.45    -0.45    -0.45    -0.45    
-0.45    -0.45    -0.45    -0.45    -0.45    
-0.45    -0.45    -0.45    -0.45    -0.45    
-0.45    -0.45    -0.45    -0.45    -0.45    
-0.45    -0.45    -0.45    -0.45    -0.45    
-0.45    -0.45    -0.45    -0.45    -0.45    
-0.45    -0.45    -0.45    -0.45    -0.45    
-0.45    -0.45    -0.45    -0.45    -0.45    
-0.45    -0.45    -0.45    -0.45    -0.45    
-0.45    -0.45    -0.45    -0.5    -0.5    
-0.5    -0.5    -0.5    -0.5    -0.5    
-0.5    -0.5    -0.5    -0.5    -0.5    
-0.5    -0.5    -0.5    -0.5    -0.5    
-0.5    -0.5    -0.5    -0.5    -0.5    
-0.5    -0.5    -0.5    -0.5    -0.5    
-0.5    -0.5    -0.5    -0.5    -0.5    
-0.5    -0.5    -0.5    -0.5    -0.5    
-0.5    -0.5    -0.5    -0.5    -0.5    
-0.5    -0.5    -0.5    -0.5    -0.5    
-0.5    -0.5    -0.5    -0.5    -0.5    
-0.5    -0.5    -0.5    -0.5    -0.5    
-0.5    -0.5    -0.5    -0.5    -0.5    
-0.5    -0.5    -0.5    -0.5    -0.5    
-0.5    -0.5    -0.5    
0.05    0.1    0.1    0.05    0.15    
0.15    0.2    0.2    0.25    0.25    
0.3    0.3    0.35    0.35    0.4    
0.4    0.45    0.45    0.5    0.5    
0.05    0.1    0.15    0.2    0.25    
0.3    0.35    0.4    0.45    0.5    
0.05    0.1    0.15    0.2    0.25    
0.3    0.35    0.4    0.45    0.5    
0.05    0.1    0.15    0.2    0.25    
0.3    0.35    0.4    0.45    0.5    
0.05    0.1    0.15    0.2    0.25    
0.3    0.35    0.4    0.45    0.5    
0.1    0.05    0.15    0.2    0.25    
0.3    0.35    0.4    0.45    0.5    
0.05    0.1    0.15    0.2    0.25    
0.3    0.35    0.4    0.45    0.5    
0.05    0.1    0.15    0.2    0.25    
0.3    0.35    0.4    0.45    0.5    
0.05    0.1    0.15    0.2    0.25    
0.3    0.35    0.4    0.45    0.5    
0.05    0.1    0.15    0.2    0.25    
0.3    0.35    0.4    0.45    0.5    
0.05    0.1    0.15    0.2    0.25    
0.3    0.35    0.4    0.45    0.5    
0.1    0.05    0.15    0.2    0.25    
0.3    0.35    0.4    0.45    0.5    
0.05    0.1    0.15    0.2    0.25    
0.3    0.35    0.4    0.45    0.5    
0.05    0.1    0.15    0.2    0.25    
0.3    0.35    0.4    0.45    0.5    
0.05    0.1    0.15    0.2    0.25    
0.3    0.35    0.4    0.45    0.5    
0.05    0.1    0.15    0.2    0.25    
0.3    0.35    0.4    0.45    0.5    
0.05    0.1    0.15    0.2    0.25    
0.3    0.35    0.4    0.45    0.5    
0.1    0.05    0.15    0.2    0.25    
0.3    0.35    0.4    0.45    0.5    
0.05    0.1    0.15    0.2    0.25    
0.3    0.35    0.4    0.45    0.5    
0.05    0.0    -2.7755575616e-17    0.1    0.15    
0.2    0.25    0.3    0.35    0.4    
0.45    0.5    0.05    0.0    0.1    
0.15    0.2    0.25    0.3    0.35    
0.4    0.45    0.5    0.05    -2.7755575616e-17    
0.1    0.15    0.2    0.25    0.3    
0.35    0.4    0.45    0.5    0.05    
-2.7755575616e-17    0.1    0.15    0.2    0.25    
0.3    0.35    0.4    0.45    0.5    
0.1    0.05    0.15    0.2    0.25    
0.3    0.35    0.4    0.45    0.5    
0.05    0.0    0.0    0.1    0.15    
0.2    0.25    0.3    0.35    0.4    
0.45    0.5    0.0    0.05    0.1    
0.15    0.2    0.25    0.3    0.35    
0.4    0.45    0.5    0.0    0.05    
0.1    0.15    0.2    0.25    0.3    
0.35    0.4    0.45    0.5    0.0    
0.05    0.1    0.15    0.2    0.25    
0.3    0.35    0.4    0.45    0.5    
0.0    0.05    0.1    0.15    0.2    
0.25    0.3    0.35    0.4    0.45    
0.5    0.05    0.0    0.1    0.15    
0.2    0.25    0.3    0.35    0.4    
0.45    0.5    0.0    0.05    0.1    
0.15    0.2    0.25    0.3    0.35    
0.4    0.45    0.5    0.0    0.05    
0.1    0.15    0.2    0.25    0.3    
0.35    0.4    0.45    0.5    0.0    
0.05    0.1    0.15    0.2    0.25    
0.3    0.35    0.4    0.45    0.5    
0.0    0.05    0.1    0.15    0.2    
0.25    0.3    0.35    0.4    0.45    
0.5    0.0    0.05    0.1    0.15    
0.2    0.25    0.3    0.35    0.4    
0.45    0.5    0.05    0.0    0.1    
0.15    0.2    0.25    0.3    0.35    
0.4    0.45    0.5    0.0    -0.05    
-0.05    0.05    0.1    0.15    0.2    
0.25    0.3    0.35    0.4    0.45    
0.5    0.0    -0.05    0.05    0.1    
0.15    0.2    0.25    0.3    0.35    
0.4    0.45    0.5    0.0    -0.05    
0.05    0.1    0.15    0.2    0.25    
0.3    0.35    0.4    0.45    0.5    
0.0    -0.05    0.05    0.1    0.15    
0.2    0.25    0.3    0.35    0.4    
0.45    0.5    0.0    -0.05    0.05    
0.1    0.15    0.2    0.25    0.3    
0.35    0.4    0.45    0.5    0.0    
-0.05    0.05    0.1    0.15    0.2    
0.25    0.3    0.35    0.4    0.45    
0.5    -0.05    0.0    0.05    0.1    
0.15    0.2    0.25    0.3    0.35    
0.4    0.45    0.5    -0.05    0.0    
0.05    0.1    0.15    0.2    0.25    
0.3    0.35    0.4    0.45    0.5    
-0.05    0.0    0.05    0.1    0.15    
0.2    0.25    0.3    0.35    0.4    
0.45    0.5    -0.05    0.0    0.05    
0.1    0.15    0.2    0.25    0.3    
0.35    0.4    0.45    0.5    -0.05    
0.0    0.05    0.1    0.15    0.2    
0.25    0.3    0.35    0.4    0.45    
0.5    0.0    -0.05    0.05    0.1    
0.15    0.2    0.25    0.3    0.35    
0.4    0.45    0.5    -0.05    0.0    
0.05    0.1    0.15    0.2    0.25    
0.3    0.35    0.4    0.45    0.5    
-0.05    0.0    0.05    0.1    0.15    
0.2    0.25    0.3    0.35    0.4    
0.45    0.5    -0.05    0.0    0.05    
0.1    0.15    0.2    0.25    0.3    
0.35    0.4    0.45    0.5    -0.05    
0.0    0.05    0.1    0.15    0.2    
0.25    0.3    0.35    0.4    0.45    
0.5    -0.05    0.0    0.05    0.1    
0.15    0.2    0.25    0.3    0.35    
0.4    0.45    0.5    0.0    -0.05    
0.05    0.1    0.15    0.2    0.25    
0.3    0.35    0.4    -0.05    0.0    
0.05    0.1    0.15    0.2    0.25    
0.3    0.35    0.4    0.45    0.5    
-0.05    0.0    0.05    0.1    0.15    
0.2    0.25    0.3    0.35    0.4    
0.45    0.5    -0.05    0.0    0.05    
0.1    0.15    0.2    0.25    0.3    
0.35    0.4    0.45    0.5    -0.05    
0.0    0.05    0.1    0.15    0.2    
0.25    0.3    0.35    0.4    0.45    
0.5    -0.05    0.0    0.05    0.1    
0.15    0.2    0.25    0.3    0.35    
0.4    0.45    0.5    0.0    -0.05    
0.05    0.1    0.15    0.2    0.25    
0.3    0.35    0.4    -0.05    0.0    
0.05    0.1    0.15    0.2    0.25    
0.3    0.35    0.4    0.45    0.5    
-0.05    0.0    0.05    0.1    0.15    
0.2    0.25    0.3    0.35    0.4    
0.45    0.5    -0.05    0.0    0.05    
0.1    0.15    0.2    0.25    0.3    
0.35    0.4    0.45    0.5    -0.05    
0.0    0.05    0.1    0.15    0.2    
0.25    0.3    0.35    0.4    0.45    
0.5    -0.05    0.0    0.05    0.1    
0.15    0.2    0.25    0.3    0.35    
0.4    0.45    0.5    
-0.3    -0.3    -0.25    -0.25    -0.3    
-0.25    -0.3    -0.25    -0.3    -0.25    
-0.3    -0.25    -0.3    -0.25    -0.3    
-0.25    -0.3    -0.25    -0.3    -0.25    
-0.35    -0.35    -0.35    -0.35    -0.35    
-0.35    -0.35    -0.35    -0.35    -0.35    
-0.4    -0.4    -0.4    -0.4    -0.4    
-0.4    -0.4    -0.4    -0.4    -0.4    
-0.45    -0.45    -0.45    -0.45    -0.45    
-0.45    -0.45    -0.45    -0.45    -0.45    
-0.5    -0.5    -0.5    -0.5    -0.5    
-0.5    -0.5    -0.5    -0.5    -0.5    
-0.25    -0.25    -0.25    -0.25    -0.25    
-0.25    -0.25    -0.25    -0.25    -0.25    
-0.3    -0.3    -0.3    -0.3    -0.3    
-0.3    -0.3    -0.3    -0.3    -0.3    
-0.35    -0.35    -0.35    -0.35    -0.35    
-0.35    -0.35    -0.35    -0.35    -0.35    
-0.4    -0.4    -0.4    -0.4    -0.4    
-0.4    -0.4    -0.4    -0.4    -0.4    
-0.45    -0.45    -0.45    -0.45    -0.45    
-0.45    -0.45    -0.45    -0.45    -0.45    
-0.5    -0.5    -0.5    -0.5    -0.5    
-0.5    -0.5    -0.5    -0.5    -0.5    
-0.25    -0.25    -0.25    -0.25    -0.25    
-0.25    -0.25    -0.25    -0.25    -0.25    
-0.3    -0.3    -0.3    -0.3    -0.3    
-0.3    -0.3    -0.3    -0.3    -0.3    
-0.35    -0.35    -0.35    -0.35    -0.35    
-0.35    -0.35    -0.35    -0.35    -0.35    
-0.4    -0.4    -0.4    -0.4    -0.4    
-0.4    -0.4    -0.4    -0.4    -0.4    
-0.45    -0.45    -0.45    -0.45    -0.45    
-0.45    -0.45    -0.45    -0.45    -0.45    
-0.5    -0.5    -0.5    -0.5    -0.5    
-0.5    -0.5    -0.5    -0.5    -0.5    
-0.25    -0.25    -0.25    -0.25    -0.25    
-0.25    -0.25    -0.25    -0.25    -0.25    
-0.3    -0.3    -0.3    -0.3    -0.3    
-0.3    -0.3    -0.3    -0.3    -0.3    
-0.35    -0.35    -0.3    -0.35    -0.35    
-0.35    -0.35    -0.35    -0.35    -0.35    
-0.35    -0.35    -0.4    -0.4    -0.4    
-0.4    -0.4    -0.4    -0.4    -0.4    
-0.4    -0.4    -0.4    -0.45    -0.45    
-0.45    -0.45    -0.45    -0.45    -0.45    
-0.45    -0.45    -0.45    -0.45    -0.5    
-0.5    -0.5    -0.5    -0.5    -0.5    
-0.5    -0.5    -0.5    -0.5    -0.5    
-0.25    -0.25    -0.25    -0.25    -0.25    
-0.25    -0.25    -0.25    -0.25    -0.25    
-0.3    -0.3    -0.25    -0.3    -0.3    
-0.3    -0.3    -0.3    -0.3    -0.3    
-0.3    -0.3    -0.35    -0.35    -0.35    
-0.35    -0.35    -0.35    -0.35    -0.35    
-0.35    -0.35    -0.35    -0.4    -0.4    
-0.4    -0.4    -0.4    -0.4    -0.4    
-0.4    -0.4    -0.4    -0.4    -0.45    
-0.45    -0.45    -0.45    -0.45    -0.45    
-0.45    -0.45    -0.45    -0.45    -0.45    
-0.5    -0.5    -0.5    -0.5    -0.5    
-0.5    -0.5    -0.5    -0.5    -0.5    
-0.5    -0.25    -0.25    -0.25    -0.25    
-0.25    -0.25    -0.25    -0.25    -0.25    
-0.25    -0.25    -0.3    -0.3    -0.3    
-0.3    -0.3    -0.3    -0.3    -0.3    
-0.3    -0.3    -0.3    -0.35    -0.35    
-0.35    -0.35    -0.35    -0.35    -0.35    
-0.35    -0.35    -0.35    -0.35    -0.4    
-0.4    -0.4    -0.4    -0.4    -0.4    
-0.4    -0.4    -0.4    -0.4    -0.4    
-0.45    -0.45    -0.45    -0.45    -0.45    
-0.45    -0.45    -0.45    -0.45    -0.45    
-0.45    -0.5    -0.5    -0.5    -0.5    
-0.5    -0.5    -0.5    -0.5    -0.5    
-0.5    -0.5    -0.25    -0.25    -0.25    
-0.25    -0.25    -0.25    -0.25    -0.25    
-0.25    -0.25    -0.25    -0.3    -0.3    
-0.25    -0.3    -0.3    -0.3    -0.3    
-0.3    -0.3    -0.3    -0.3    -0.3    
-0.3    -0.35    -0.35    -0.35    -0.35    
-0.35    -0.35    -0.35    -0.35    -0.35    
-0.35    -0.35    -0.35    -0.4    -0.4    
-0.4    -0.4    -0.4    -0.4    -0.4    
-0.4    -0.4    -0.4    -0.4    -0.4    
-0.45    -0.45    -0.45    -0.45    -0.45    
-0.45    -0.45    -0.45    -0.45    -0.45    
-0.45    -0.45    -0.5    -0.5    -0.5    
-0.5    -0.5    -0.5    -0.5    -0.5    
-0.5    -0.5    -0.5    -0.5    -0.25    
-0.25    -0.25    -0.25    -0.25    -0.25    
-0.25    -0.25    -0.25    -0.25    -0.25    
-0.25    -0.3    -0.3    -0.3    -0.3    
-0.3    -0.3    -0.3    -0.3    -0.3    
-0.3    -0.3    -0.3    -0.35    -0.35    
-0.35    -0.35    -0.35    -0.35    -0.35    
-0.35    -0.35    -0.35    -0.35    -0.35    
-0.4    -0.4    -0.4    -0.4    -0.4    
-0.4    -0.4    -0.4    -0.4    -0.4    
-0.4    -0.4    -0.45    -0.45    -0.45    
-0.45    -0.45    -0.45    -0.45    -0.45    
-0.45    -0.45    -0.45    -0.45    -0.5    
-0.5    -0.5    -0.5    -0.5    -0.5    
-0.5    -0.5    -0.5    -0.5    -0.5    
-0.5    -0.25    -0.25    -0.25    -0.25    
-0.25    -0.25    -0.25    -0.25    -0.25    
-0.25    -0.25    -0.25    -0.3    -0.3    
-0.3    -0.3    -0.3    -0.3    -0.3    
-0.3    -0.3    -0.3    -0.3    -0.3    
-0.35    -0.35    -0.35    -0.35    -0.35    
-0.35    -0.35    -0.35    -0.35    -0.35    
-0.35    -0.35    -0.4    -0.4    -0.4    
-0.4    -0.4    -0.4    -0.4    -0.4    
-0.4    -0.4    -0.4    -0.4    -0.45    
-0.45    -0.45    -0.45    -0.45    -0.45    
-0.45    -0.45    -0.45    -0.45    -0.45    
-0.45    -0.5    -0.5    -0.5    -0.5    
-0.5    -0.5    -0.5    -0.5    -0.5    
-0.5    -0.5    -0.5    -0.25    -0.25    
-0.25    -0.25    -0.25    -0.25    -0.25    
-0.25    -0.25    -0.25    -0.3    -0.3    
-0.3    -0.3    -0.3    -0.3    -0.3    
-0.3    -0.3    -0.3    -0.3    -0.3    
-0.35    -0.35    -0.35    -0.35    -0.35    
-0.35    -0.35    -0.35    -0.35    -0.35    
-0.35    -0.35    -0.4    -0.4    -0.4    
-0.4    -0.4    -0.4    -0.4    -0.4    
-0.4    -0.4    -0.4    -0.4    -0.45    
-0.45    -0.45    -0.45    -0.45    -0.45    
-0.45    -0.45    -0.45    -0.45    -0.45    
-0.45    -0.5    -0.5    -0.5    -0.5    
-0.5    -0.5    -0.5    -0.5    -0.5    
-0.5    -0.5    -0.5    -0.25    -0.25    
-0.25    -0.25    -0.25    -0.25    -0.25    
-0.25    -0.25    -0.25    -0.3    -0.3    
-0.3    -0.3    -0.3    -0.3    -0.3    
-0.3    -0.3    -0.3    -0.3    -0.3    
-0.35    -0.35    -0.35    -0.35    -0.35    
-0.35    -0.35    -0.35    -0.35    -0.35    
-0.35    -0.35    -0.4    -0.4    -0.4    
-0.4    -0.4    -0.4    -0.4    -0.4    
-0.4    -0.4    -0.4    -0.4    -0.45    
-0.45    -0.45    -0.45    -0.45    -0.45    
-0.45    -0.45    -0.45    -0.45    -0.45    
-0.45    -0.5    -0.5    -0.5    -0.5    
-0.5    -0.5    -0.5    -0.5    -0.5    
-0.5    -0.5    -0.5    
320.029413535    336.18447577    347.580337652    337.367708018    299.839243323    
333.869411971    321.385700073    274.608974002    316.421077601    301.34846943    
243.144258769    294.074178281    276.223066602    204.126585769    265.260834362    
244.778904717    156.34932842    227.905960101    205.657860402    99.3033400601    
179.467810102    157.621469925    34.2850642109    117.518883413    100.153556405    
41.746676591    34.5850155588    360.88788045    348.543610123    350.34005072    
334.976180668    336.666630814    317.655923793    318.681343287    295.398662326    
294.573488537    266.606286254    261.504389591    229.170180767    215.043828518    
180.521050121    148.852203431    118.224386921    56.6802128674    41.9958990691    
375.80219712    361.600653557    369.115610111    351.160720413    360.306234842    
337.584447716    348.424046421    319.668372468    331.841918931    295.578956574    
307.546825979    262.451844863    269.55946047    215.835279026    205.634585068    
149.383507312    92.6142559538    56.8681412378    391.804869351    376.240298737    
389.508743631    369.620824347    386.452614342    360.872272587    382.256740722    
349.033994376    376.200619908    332.464613854    366.693450469    308.134910464    
349.520294699    270.051768107    311.181340375    205.965665123    200.639247433    
92.7314903609    391.952702778    389.679368024    386.643966886    382.463163688    
376.411609346    366.892962237    349.687516892    311.293915053    200.679135704    
339.769934595    324.159190028    304.46173009    279.587018273    248.225694852    
208.927623936    160.372176634    102.011919026    35.2450744617    350.500697823    
337.241717808    320.206705171    298.164146671    269.450178884    231.878082923    
182.807174032    119.773425231    42.5470731841    363.049752897    352.842165551    
339.482766253    321.732830585    297.709133497    264.487352777    217.55967524    
150.555368144    57.2858790558    377.131425397    370.656676253    362.044167383    
350.311497261    333.786293458    309.401447744    271.127776674    206.69872484    
92.9932345088    392.253487253    390.029338541    387.040349567    382.895834498    
376.859905735    367.323248493    350.053678147    311.543747275    200.768432782    
343.456355293    328.465689152    309.365770273    284.977606234    253.859540414    
214.390059953    165.071214048    105.250597773    36.4107580973    353.507604133    
340.76536775    324.233946476    302.609484874    274.11772916    236.425987188    
186.738634067    122.494630096    43.5292344751    365.278584518    355.461359711    
342.486281132    325.061067371    301.219188713    267.923932386    220.545100788    
152.630997182    58.0373363138    378.503184649    372.27213632    363.901442377    
352.375863275    335.971162652    311.549104598    273.001365963    208.006557315    
93.4681145212    392.716709692    390.575488692    387.66913966    383.595925236    
377.602354353    368.054745587    350.693457692    311.991480103    200.93134477    
348.507500759    334.460826068    316.328585745    292.81695425    262.288474907    
222.830380033    172.585801787    110.601467903    38.3836620731    363.410281844    
372.807622877    366.822141697    357.634337722    345.681889311    329.970069717    
309.102413398    281.141994931    243.507484677    193.087698274    127.044891863    
45.2148436348    383.22952342    375.333325139    368.341982891    359.123622989    
346.777104606    329.942755656    306.532107217    273.316860248    225.415999891    
156.14699043    59.347128961    394.330306247    384.782479524    380.390728559    
374.534666247    366.5610665    355.414084758    339.29417151    314.941973255    
276.086198711    210.24866128    94.3083287403    394.854441964    393.354501015    
391.341096631    388.570771747    384.628284868    378.734741264    369.215053973    
351.752934043    312.765253668    201.22273075    359.454409215    364.754694281    
354.994942768    342.310145585    325.670055334    303.660057355    274.389938332    
235.495102316    184.435940703    119.4821836    41.8067834126    371.144880976    
362.944907679    352.137111674    337.696478823    318.133221012    291.303760279    
254.241987414    203.233377377    134.723720844    48.1989880749    378.537258248    
372.291298442    363.944735173    352.578831653    336.769756602    314.27767224    
281.57966406    233.313150893    162.194263405    61.7224036076    386.754310429    
382.827557058    377.519346492    370.168329276    359.682366743    344.170959915    
320.190450489    281.15625783    214.178638814    95.8716656697    395.520293683    
394.178530267    392.35224872    389.795814572    386.082471075    380.403324143    
371.020983659    353.510574253    314.140969502    201.77691882    371.144880978    
362.944907676    352.137111667    337.696478823    318.133221009    291.303760275    
254.24198741    203.233377374    134.723720842    48.198988074    376.364219329    
369.466874568    360.244513516    347.689583613    330.266859666    305.637747785    
270.33253581    219.597766146    148.188620755    53.9251650261    382.410971224    
377.151349625    370.01819982    360.116585448    346.003692314    325.309785363    
294.137863067    246.299342789    173.080675839    66.44477914    389.14084767    
385.831128178    381.288542484    374.872549703    365.488598826    351.177774364    
328.272864207    289.65853382    221.460015193    99.1153697049    396.326647636    
395.195111396    393.630953077    391.396881187    388.067507204    382.814113087    
373.827482757    356.502874738    316.755400958    202.979984641    377.446064749    
381.606737081    383.288763324    378.537258229    372.291298421    363.944735158    
352.578831636    336.769756585    314.277672221    281.579664044    233.313150882    
162.194263398    61.7224036042    386.367292864    386.367292848    382.41097121    
377.151349613    370.018199808    360.116585437    346.0036923    325.30978535    
294.137863057    246.299342782    173.080675834    66.4447791381    391.609631585    
389.892795825    386.904859622    382.889625532    377.363472668    369.536655585    
358.070567975    340.623962403    313.032986164    268.008066966    193.897033747    
77.2698398004    397.166643908    393.778038261    391.912396976    389.383360832    
385.859077631    380.776360996    373.127702623    361.010324782    340.645080745    
304.259848156    235.971472021    107.051143288    397.898637056    397.263636797    
396.398520609    395.183887751    393.411343749    390.690486251    386.222703137    
378.181543603    361.768131378    322.203962626    206.192187646    389.717426422    
386.754310413    382.827557043    377.519346476    370.168329261    359.682366725    
344.170959899    320.190450474    281.15625782    391.609631575    389.140847658    
385.831128166    381.288542472    374.872549691    365.488598813    351.177774352    
328.272864197    289.658533811    221.460015186    99.1153697023    393.77803826    
391.912396973    389.383360828    385.859077628    380.776360992    373.127702619    
361.010324778    340.645080741    304.259848153    235.971472018    107.051143287    
396.169111468    395.00363868    393.409416063    391.158841062    387.850836678    
382.729876903    374.264725414    359.112917551    329.507804002    266.956829108    
130.809133843    398.706056811    398.309255301    397.763647492    396.987319184    
395.831790055    394.00414704    390.862454235    384.8074072    371.228690518    
334.740546381    217.302410609    396.528125498    395.520293678    394.178530261    
392.352248713    389.795814565    386.082471068    380.403324136    371.020983654    
353.510574248    397.166643905    396.326647632    395.195111391    393.630953073    
391.396881182    388.067507199    382.814113082    373.827482752    356.502874734    
316.755400955    202.97998464    397.898637056    397.263636795    396.398520608    
395.183887749    393.411343747    390.690486249    386.222703135    378.181543601    
361.768131376    322.203962625    206.192187645    398.70605681    398.309255301    
397.763647491    396.987319183    395.831790055    394.004147039    390.862454234    
384.807407199    371.228690518    334.740546381    217.302410609    399.562926778    
399.427807333    399.24102128    398.973067923    398.568883733    397.914421833    
396.738196849    394.266244489    387.776944666    365.491931804    266.677417002    

0.125    0.075    0.075    0.075    0.175    
0.125    0.125    0.225    0.175    0.175    
0.275    0.225    0.225    0.325    0.275    
0.275    0.375    0.325    0.325    0.425    
0.375    0.375    0.475    0.425    0.425    
0.475    0.475    0.075    0.075    0.125    
0.125    0.175    0.175    0.225    0.225    
0.275    0.275    0.325    0.325    0.375    
0.375    0.425    0.425    0.475    0.475    
0.075    0.075    0.125    0.125    0.175    
0.175    0.225    0.225    0.275    0.275    
0.325    0.325    0.375    0.375    0.425    
0.425    0.475    0.475    0.075    0.075    
0.125    0.125    0.175    0.175    0.225    
0.225    0.275    0.275    0.325    0.325    
0.375    0.375    0.425    0.425    0.475    
0.475    0.075    0.125    0.175    0.225    
0.275    0.325    0.375    0.425    0.475    
0.075    0.125    0.175    0.225    0.275    
0.325    0.375    0.425    0.475    0.075    
0.125    0.175    0.225    0.275    0.325    
0.375    0.425    0.475    0.075    0.125    
0.175    0.225    0.275    0.325    0.375    
0.425    0.475    0.075    0.125    0.175    
0.225    0.275    0.325    0.375    0.425    
0.475    0.075    0.125    0.175    0.225    
0.275    0.325    0.375    0.425    0.475    
0.075    0.125    0.175    0.225    0.275    
0.325    0.375    0.425    0.475    0.075    
0.125    0.175    0.225    0.275    0.325    
0.375    0.425    0.475    0.075    0.125    
0.175    0.225    0.275    0.325    0.375    
0.425    0.475    0.075    0.125    0.175    
0.225    0.275    0.325    0.375    0.425    
0.475    0.075    0.125    0.175    0.225    
0.275    0.325    0.375    0.425    0.475    
0.075    0.125    0.175    0.225    0.275    
0.325    0.375    0.425    0.475    0.025    
0.025    0.025    0.075    0.125    0.175    
0.225    0.275    0.325    0.375    0.425    
0.475    0.025    0.025    0.075    0.125    
0.175    0.225    0.275    0.325    0.375    
0.425    0.475    0.025    0.025    0.075    
0.125    0.175    0.225    0.275    0.325    
0.375    0.425    0.475    0.025    0.075    
0.125    0.175    0.225    0.275    0.325    
0.375    0.425    0.475    0.025    0.025    
0.075    0.125    0.175    0.225    0.275    
0.325    0.375    0.425    0.475    0.025    
0.075    0.125    0.175    0.225    0.275    
0.325    0.375    0.425    0.475    0.025    
0.075    0.125    0.175    0.225    0.275    
0.325    0.375    0.425    0.475    0.025    
0.075    0.125    0.175    0.225    0.275    
0.325    0.375    0.425    0.475    0.025    
0.075    0.125    0.175    0.225    0.275    