Title = " tecplot file for 2D Cavity problem " 
variables = "x", "y", "z", "velX", "cellCentroidY" 
Zone T = "nmesh0" N = 784 E = 500 DATAPACKING = BLOCK, VARLOCATION = ([4-5]=CELLCENTERED),  ZONETYPE=FEBRICK 
0.3    0.3    0.3    0.3    0.3    
0.3    0.3    0.3    0.3    0.3    
0.25    0.25    0.25    0.25    0.25    
0.25    0.25    0.25    0.25    0.25    
0.25    0.25    0.25    0.25    0.25    
0.25    0.25    0.25    0.25    0.25    
0.25    0.25    0.25    0.25    0.25    
0.25    0.25    0.25    0.25    0.25    
0.25    0.25    0.25    0.25    0.25    
0.25    0.25    0.25    0.25    0.25    
0.25    0.25    0.25    0.25    0.25    
0.25    0.25    0.25    0.25    0.25    
0.2    0.2    0.2    0.2    0.2    
0.2    0.2    0.2    0.2    0.2    
0.2    0.2    0.2    0.2    0.2    
0.2    0.2    0.2    0.2    0.2    
0.2    0.2    0.2    0.2    0.2    
0.2    0.2    0.2    0.2    0.2    
0.2    0.2    0.2    0.2    0.2    
0.2    0.2    0.2    0.2    0.2    
0.2    0.2    0.2    0.2    0.2    
0.2    0.2    0.2    0.2    0.2    
0.2    0.2    0.2    0.2    0.2    
0.2    0.2    0.2    0.2    0.2    
0.2    0.2    0.2    0.2    0.2    
0.2    0.2    0.2    0.2    0.2    
0.2    0.2    0.2    0.2    0.2    
0.2    0.2    0.2    0.2    0.2    
0.2    0.2    0.2    0.2    0.2    
0.2    0.2    0.2    0.2    0.2    
0.2    0.2    0.2    0.2    0.15    
0.15    0.15    0.15    0.15    0.15    
0.15    0.15    0.15    0.15    0.15    
0.15    0.15    0.15    0.15    0.15    
0.15    0.15    0.15    0.15    0.15    
0.15    0.15    0.15    0.15    0.15    
0.15    0.15    0.15    0.15    0.15    
0.15    0.15    0.15    0.15    0.15    
0.15    0.15    0.15    0.15    0.15    
0.15    0.15    0.15    0.15    0.15    
0.15    0.15    0.15    0.15    0.15    
0.15    0.15    0.15    0.15    0.15    
0.15    0.15    0.15    0.15    0.15    
0.15    0.15    0.15    0.15    0.15    
0.15    0.15    0.15    0.15    0.15    
0.15    0.15    0.15    0.15    0.15    
0.15    0.15    0.15    0.15    0.15    
0.15    0.15    0.15    0.15    0.15    
0.15    0.15    0.15    0.15    0.15    
0.15    0.15    0.15    0.15    0.15    
0.1    0.1    0.1    0.1    0.1    
0.1    0.1    0.1    0.1    0.1    
0.1    0.1    0.1    0.1    0.1    
0.1    0.1    0.1    0.1    0.1    
0.1    0.1    0.1    0.1    0.1    
0.1    0.1    0.1    0.1    0.1    
0.1    0.1    0.1    0.1    0.1    
0.1    0.1    0.1    0.1    0.1    
0.1    0.1    0.1    0.1    0.1    
0.1    0.1    0.1    0.1    0.1    
0.1    0.1    0.1    0.1    0.1    
0.1    0.1    0.1    0.1    0.1    
0.1    0.1    0.1    0.1    0.1    
0.1    0.1    0.1    0.1    0.1    
0.1    0.1    0.1    0.1    0.1    
0.1    0.1    0.1    0.1    0.1    
0.1    0.1    0.1    0.1    0.1    
0.1    0.1    0.1    0.1    0.1    
0.1    0.1    0.1    0.1    0.1    
0.1    0.1    0.1    0.1    0.1    
0.1    0.1    0.1    0.1    0.1    
0.1    0.1    0.1    0.1    0.1    
0.1    0.1    0.05    0.05    0.05    
0.05    0.05    0.05    0.05    0.05    
0.05    0.05    0.05    0.05    0.05    
0.05    0.05    0.05    0.05    0.05    
0.05    0.05    0.05    0.05    0.05    
0.05    0.05    0.05    0.05    0.05    
0.05    0.05    0.05    0.05    0.05    
0.05    0.05    0.05    0.05    0.05    
0.05    0.05    0.05    0.05    0.05    
0.05    0.05    0.05    0.05    0.05    
0.05    0.05    0.05    0.05    0.05    
0.05    0.05    0.05    0.05    0.05    
0.05    0.05    0.05    0.05    0.05    
0.05    0.05    0.05    0.05    0.05    
0.05    0.05    0.05    0.05    0.05    
0.05    0.05    0.05    0.05    0.05    
0.05    0.05    0.05    0.05    0.05    
0.05    0.05    0.05    0.05    0.05    
0.05    0.05    0.05    0.05    0.05    
0.05    0.05    0.05    0.05    0.05    
0.05    0.05    0.05    0.05    0.05    
0.05    0.05    0.05    0.05    0.05    
0.05    0.05    0.05    0.05    0.05    
0.05    0.05    0.05    0.05    0.05    
0.05    0.05    0.05    0.05    -1.0408340856e-17    
-2.7755575616e-17    -1.9081958236e-17    0.0    -2.0816681712e-17    -2.7755575616e-17    
0.0    0.0    2.0816681712e-17    0.0    6.9388939039e-18    
0.0    0.0    0.0    -1.3877787808e-17    -2.7755575616e-17    
0.0    0.0    -2.7755575616e-17    -1.0408340856e-17    -2.7755575616e-17    
0.0    0.0    0.0    0.0    -2.7755575616e-17    
0.0    0.0    1.3877787808e-17    0.0    0.0    
2.7755575616e-17    0.0    0.0    0.0    0.0    
2.7755575616e-17    2.7755575616e-17    0.0    2.7755575616e-17    2.7755575616e-17    
2.7755575616e-17    0.0    0.0    0.0    0.0    
6.9388939039e-18    0.0    0.0    2.7755575616e-17    0.0    
0.0    -2.7755575616e-17    0.0    0.0    0.0    
0.0    0.0    1.3877787808e-17    0.0    0.0    
2.7755575616e-17    0.0    0.0    -2.7755575616e-17    0.0    
0.0    0.0    0.0    -2.7755575616e-17    -2.7755575616e-17    
-2.7755575616e-17    -2.7755575616e-17    0.0    0.0    -2.7755575616e-17    
-2.7755575616e-17    0.0    0.0    0.0    0.0    
0.0    0.0    0.0    0.0    0.0    
0.0    0.0    -2.7755575616e-17    0.0    0.0    
0.0    1.3877787808e-17    0.0    0.0    2.7755575616e-17    
0.0    0.0    -2.7755575616e-17    0.0    0.0    
0.0    0.0    0.0    0.0    0.0    
0.0    0.0    -2.7755575616e-17    0.0    0.0    
0.0    0.0    0.0    0.0    0.0    
0.0    -2.7755575616e-17    -2.7755575616e-17    0.0    0.0    
-2.7755575616e-17    -2.7755575616e-17    0.0    0.0    -0.05    
-0.05    -0.05    -0.05    -0.05    -0.05    
-0.05    -0.05    -0.05    -0.05    -0.05    
-0.05    -0.05    -0.05    -0.05    -0.05    
-0.05    -0.05    -0.05    -0.05    -0.05    
-0.05    -0.05    -0.05    -0.05    -0.05    
-0.05    -0.05    -0.05    -0.05    -0.05    
-0.05    -0.05    -0.05    -0.05    -0.05    
-0.05    -0.05    -0.05    -0.05    -0.05    
-0.05    -0.05    -0.05    -0.05    -0.05    
-0.05    -0.05    -0.05    -0.05    -0.05    
-0.05    -0.05    -0.05    -0.05    -0.05    
-0.05    -0.05    -0.05    -0.05    -0.05    
-0.05    -0.05    -0.05    -0.05    -0.05    
-0.05    -0.05    -0.05    -0.05    -0.05    
-0.05    -0.05    -0.05    -0.05    -0.05    
-0.05    -0.05    -0.05    -0.05    -0.05    
-0.05    -0.05    -0.05    -0.05    -0.05    
-0.05    -0.05    -0.05    -0.05    -0.05    
-0.05    -0.05    -0.05    -0.05    -0.05    
-0.05    -0.05    -0.05    -0.05    -0.05    
-0.05    -0.05    -0.05    -0.05    -0.05    
-0.05    -0.05    -0.05    -0.05    -0.05    
-0.05    -0.05    -0.05    -0.05    -0.05    
-0.05    -0.1    -0.1    -0.1    -0.1    
-0.1    -0.1    -0.1    -0.1    -0.1    
-0.1    -0.1    -0.1    -0.1    -0.1    
-0.1    -0.1    -0.1    -0.1    -0.1    
-0.1    -0.1    -0.1    -0.1    -0.1    
-0.1    -0.1    -0.1    -0.1    -0.1    
-0.1    -0.1    -0.1    -0.1    -0.1    
-0.1    -0.1    -0.1    -0.1    -0.1    
-0.1    -0.1    -0.1    -0.1    -0.1    
-0.15    -0.15    -0.15    -0.15    -0.15    
-0.15    -0.15    -0.15    -0.15    -0.15    
-0.15    -0.15    -0.15    -0.15    
-0.4    -0.35    -0.35    -0.4    -0.15    
-0.1    -0.1    -0.15    -0.15    -0.1    
-0.5    -0.45    -0.45    -0.5    -0.4    
-0.4    -0.35    -0.35    -0.3    -0.3    
-0.25    -0.25    -0.2    -0.2    -0.15    
-0.15    -0.1    -0.1    -0.05    -0.05    
-0.5    -0.45    -0.4    -0.35    -0.3    
-0.25    -0.2    -0.15    -0.1    -0.05    
-0.5    -0.45    -0.4    -0.35    -0.3    
-0.25    -0.2    -0.15    -0.1    -0.4    
-0.35    -0.3    -0.25    -0.2    -0.15    
-0.1    -0.4    -0.35    -0.3    -0.25    
-0.45    -0.4    -0.4    -0.45    -0.35    
-0.35    -0.5    -0.45    -0.5    -0.4    
-0.35    -0.5    -0.45    -0.4    -0.35    
-0.3    -0.3    -0.25    -0.25    -0.2    
-0.2    -0.15    -0.15    -0.1    -0.1    
-0.5    -0.45    -0.4    -0.35    -0.3    
-0.25    -0.2    -0.15    -0.1    -0.45    
-0.5    -0.4    -0.35    -0.3    -0.25    
-0.2    -0.15    -0.1    -0.05    -0.05    
-0.45    -0.5    -0.4    -0.35    -0.3    
-0.25    -0.2    -0.15    -0.1    -0.05    
-0.45    -0.5    -0.4    -0.35    -0.3    
-0.25    -0.2    -0.15    -0.1    -0.05    
-0.45    -0.5    -0.4    -0.35    -0.3    
-0.25    -0.2    -0.15    -0.1    -0.05    
-0.5    -0.45    -0.4    -0.35    -0.3    
-0.25    -0.2    -0.15    -0.1    -0.05    
-0.4    -0.45    -0.35    -0.3    -0.25    
-0.2    -0.15    -0.1    -0.05    -0.45    
-0.45    -0.5    -0.5    -0.4    -0.4    
-0.35    -0.35    -0.45    -0.5    -0.4    
-0.35    -0.3    -0.25    -0.2    -0.15    
-0.1    -0.45    -0.5    -0.4    -0.35    
-0.3    -0.25    -0.2    -0.15    -0.1    
-0.45    -0.5    -0.4    -0.35    -0.3    
-0.25    -0.2    -0.15    -0.1    -0.05    
-0.45    -0.5    -0.4    -0.35    -0.3    
-0.25    -0.2    -0.15    -0.1    -0.05    
-0.45    -0.5    -0.4    -0.35    -0.3    
-0.25    -0.2    -0.15    -0.1    -0.05    
-0.45    -0.5    -0.4    -0.35    -0.3    
-0.25    -0.2    -0.15    -0.1    -0.05    
-0.45    -0.5    -0.4    -0.35    -0.3    
-0.25    -0.2    -0.15    -0.1    -0.05    
-0.45    -0.5    -0.4    -0.35    -0.3    
-0.25    -0.2    -0.15    -0.1    -0.05    
-0.45    -0.5    -0.4    -0.35    -0.3    
-0.25    -0.2    -0.15    -0.1    -0.05    
-0.45    -0.45    -0.5    -0.5    -0.4    
-0.4    -0.35    -0.35    -0.3    -0.3    
-0.25    -0.25    -0.2    -0.2    -0.45    
-0.5    -0.4    -0.35    -0.3    -0.25    
-0.2    -0.15    -0.1    -0.45    -0.5    
-0.4    -0.35    -0.3    -0.25    -0.2    
-0.15    -0.1    -0.45    -0.5    -0.4    
-0.35    -0.3    -0.25    -0.2    -0.15    
-0.1    -0.05    -0.45    -0.5    -0.4    
-0.35    -0.3    -0.25    -0.2    -0.15    
-0.1    -0.05    -0.45    -0.5    -0.4    
-0.35    -0.3    -0.25    -0.2    -0.15    
-0.1    -0.05    2.7755575616e-18    1.3877787808e-18    0.05    
0.05    -0.45    -0.5    -0.4    -0.35    
-0.3    -0.25    -0.2    -0.15    -0.1    
-0.05    -5.5511151231e-18    0.05    -0.45    -0.5    
-0.4    -0.35    -0.3    -0.25    -0.2    
-0.15    -0.1    -0.05    -0.45    -0.5    
-0.4    -0.35    -0.3    -0.25    -0.2    
-0.15    -0.1    -0.05    -0.45    -0.5    
-0.4    -0.35    -0.3    -0.25    -0.2    
-0.15    -0.1    -0.05    -0.4    -0.35    
-0.3    -0.25    -0.45    -0.45    -0.5    
-0.5    -0.4    -0.4    -0.35    -0.35    
-0.3    -0.3    -0.25    -0.25    -0.2    
-0.2    -0.15    -0.15    -0.1    -0.1    
-0.45    -0.5    -0.4    -0.35    -0.3    
-0.25    -0.2    -0.15    -0.1    -0.45    
-0.5    -0.4    -0.35    -0.3    -0.25    
-0.2    -0.15    -0.1    -0.45    -0.5    
-0.4    -0.35    -0.3    -0.25    -0.2    
-0.15    -0.1    -0.05    -0.45    -0.5    
-0.4    -0.35    -0.3    -0.25    -0.2    
-0.15    -0.1    -0.05    6.9388939039e-19    0.05    
-0.45    -0.5    -0.4    -0.35    -0.3    
-0.25    -0.2    -0.15    -0.1    -0.05    
1.3877787808e-18    0.05    -0.45    -0.5    -0.4    
-0.35    -0.3    -0.25    -0.2    -0.15    
-0.1    -0.05    -2.7755575616e-18    0.05    -0.45    
-0.5    -0.4    -0.35    -0.3    -0.25    
-0.2    -0.15    -0.1    -0.05    -0.45    
-0.5    -0.4    -0.35    -0.3    -0.25    
-0.2    -0.15    -0.1    -0.05    -0.45    
-0.5    -0.4    -0.35    -0.3    -0.25    
-0.2    -0.15    -0.1    -0.05    -0.5    
-0.45    -0.4    -0.35    -0.3    -0.25    
-0.2    -0.15    -0.1    -0.05    -0.45    
-0.45    -0.5    -0.5    -0.4    -0.4    
-0.35    -0.35    -0.3    -0.3    -0.25    
-0.25    -0.2    -0.2    -0.15    -0.15    
-0.1    -0.1    -0.45    -0.5    -0.4    
-0.35    -0.3    -0.25    -0.2    -0.15    
-0.1    -0.45    -0.5    -0.4    -0.35    
-0.3    -0.25    -0.2    -0.15    -0.1    
-0.45    -0.5    -0.4    -0.35    -0.3    
-0.25    -0.2    -0.15    -0.1    -0.45    
-0.5    -0.4    -0.35    -0.3    -0.25    
-0.2    -0.15    -0.1    -0.05    0.0    
0.05    -0.45    -0.5    -0.4    -0.35    
-0.3    -0.25    -0.2    -0.15    -0.1    
-0.05    0.0    0.05    -0.45    -0.5    
-0.4    -0.35    -0.3    -0.25    -0.2    
-0.15    -0.1    -0.05    0.0    0.05    
-0.45    -0.5    -0.4    -0.35    -0.3    
-0.25    -0.2    -0.15    -0.1    -0.05    
-0.45    -0.5    -0.4    -0.35    -0.3    
-0.25    -0.2    -0.15    -0.1    -0.05    
-0.45    -0.5    -0.4    -0.35    -0.3    
-0.25    -0.2    -0.15    -0.1    -0.05    
-0.45    -0.5    -0.4    -0.35    -0.3    
-0.25    -0.2    -0.15    -0.1    -0.05    
-0.2    -0.15    -0.1    -0.05    -0.45    
-0.45    -0.5    -0.5    -0.4    -0.4    
-0.35    -0.35    -0.3    -0.3    -0.25    
-0.25    -0.2    -0.2    -0.15    -0.15    
-0.1    -0.1    -0.45    -0.5    -0.4    
-0.35    -0.3    -0.25    -0.2    -0.15    
-0.1    -0.45    -0.5    -0.4    -0.35    
-0.3    -0.25    -0.2    -0.15    -0.1    
-0.45    -0.5    -0.4    -0.35    -0.3    
-0.25    -0.2    -0.15    -0.1    -0.45    
-0.5    -0.4    -0.35    -0.3    -0.25    
-0.2    -0.15    -0.1    -0.45    -0.5    
-0.4    -0.35    -0.3    -0.25    -0.2    
-0.15    -0.1    -0.45    -0.5    -0.4    
-0.35    -0.3    -0.25    -0.2    -0.15    
-0.1    -0.45    -0.5    -0.4    -0.35    
-0.3    -0.25    -0.2    -0.15    -0.1    
-0.05    -0.45    -0.5    -0.4    -0.35    
-0.3    -0.25    -0.2    -0.15    -0.1    
-0.05    -0.45    -0.5    -0.4    -0.35    
-0.3    -0.25    -0.2    -0.15    -0.1    
-0.05    -0.45    -0.5    -0.4    -0.35    
-0.3    -0.25    -0.2    -0.15    -0.1    
-0.05    -0.2    -0.25    -0.15    -0.1    
-0.05    -0.15    -0.2    -0.1    -0.2    
-0.15    -0.1    -0.2    -0.15    -0.1    
-0.45    -0.5    -0.4    -0.35    -0.3    
-0.25    -0.2    -0.15    -0.1    -0.05    
-0.45    -0.5    -0.4    -0.35    -0.3    
-0.25    -0.2    -0.15    -0.1    -0.05    
-0.45    -0.5    -0.4    -0.35    -0.3    
-0.25    -0.2    -0.15    -0.1    -0.05    
-0.25    -0.2    -0.15    -0.1    -0.05    
-0.25    -0.3    -0.2    -0.15    -0.1    
-0.3    -0.25    -0.2    -0.15    -0.1    
-0.25    -0.2    -0.15    -0.1    
0.1    0.1    0.15    0.15    0.1    
0.1    0.15    0.15    0.05    0.05    
0.2    0.2    0.25    0.25    0.2    
0.25    0.2    0.25    0.2    0.25    
0.2    0.25    0.2    0.25    0.2    
0.25    0.2    0.25    0.2    0.25    
0.15    0.15    0.15    0.15    0.15    
0.15    0.15    0.15    0.15    0.15    
0.1    0.1    0.1    0.1    0.1    
0.1    0.1    0.1    0.1    0.05    
0.05    0.05    0.05    0.05    0.05    
0.05    0.0    0.0    -2.4651903288e-32    0.0    
0.45    0.45    0.5    0.5    0.45    
0.5    0.4    0.4    0.45    0.4    
0.4    0.35    0.35    0.35    0.35    
0.35    0.4    0.35    0.4    0.35    
0.4    0.35    0.4    0.35    0.4    
0.3    0.3    0.3    0.3    0.3    
0.3    0.3    0.3    0.3    0.25    
0.25    0.25    0.25    0.25    0.25    
0.25    0.25    0.25    0.25    0.3    
0.2    0.2    0.2    0.2    0.2    
0.2    0.2    0.2    0.2    0.2    
0.15    0.15    0.15    0.15    0.15    
0.15    0.15    0.15    0.15    0.15    
0.1    0.1    0.1    0.1    0.1    
0.1    0.1    0.1    0.1    0.1    
0.05    0.05    0.05    0.05    0.05    
0.05    0.05    0.05    0.05    0.05    
0.0    0.0    0.0    0.0    0.0    
0.0    0.0    0.0    0.0    0.5    
0.45    0.45    0.5    0.5    0.45    
0.5    0.45    0.4    0.4    0.4    
0.4    0.4    0.4    0.4    0.4    
0.4    0.35    0.35    0.35    0.35    
0.35    0.35    0.35    0.35    0.35    
0.3    0.3    0.3    0.3    0.3    
0.3    0.3    0.3    0.3    0.3    
0.25    0.25    0.25    0.25    0.25    
0.25    0.25    0.25    0.25    0.25    
0.2    0.2    0.2    0.2    0.2    
0.2    0.2    0.2    0.2    0.2    
0.15    0.15    0.15    0.15    0.15    
0.15    0.15    0.15    0.15    0.15    
0.1    0.1    0.1    0.1    0.1    
0.1    0.1    0.1    0.1    0.1    
0.05    0.05    0.05    0.05    0.05    
0.05    0.05    0.05    0.05    0.05    
0.0    0.0    0.0    0.0    0.0    
0.0    0.0    0.0    0.0    0.0    
0.5    0.45    0.45    0.5    0.5    
0.45    0.5    0.45    0.45    0.5    
0.45    0.5    0.45    0.5    0.4    
0.4    0.4    0.4    0.4    0.4    
0.4    0.4    0.4    0.35    0.35    
0.35    0.35    0.35    0.35    0.35    
0.35    0.35    0.3    0.3    0.3    
0.3    0.3    0.3    0.3    0.3    
0.3    0.3    0.25    0.25    0.25    
0.25    0.25    0.25    0.25    0.25    
0.25    0.25    0.2    0.2    0.2    
0.2    0.2    0.2    0.2    0.2    
0.2    0.2    0.2    0.25    0.2    
0.25    0.15    0.15    0.15    0.15    
0.15    0.15    0.15    0.15    0.15    
0.15    0.15    0.15    0.1    0.1    
0.1    0.1    0.1    0.1    0.1    
0.1    0.1    0.1    0.05    0.05    
0.05    0.05    0.05    0.05    0.05    
0.05    0.05    0.05    0.0    0.0    
0.0    0.0    0.0    0.0    0.0    
0.0    0.0    0.0    -0.05    -0.05    
-0.05    -0.05    0.5    0.45    0.45    
0.5    0.5    0.45    0.5    0.45    
0.5    0.45    0.5    0.45    0.5    
0.45    0.45    0.5    0.45    0.5    
0.4    0.4    0.4    0.4    0.4    
0.4    0.4    0.4    0.4    0.35    
0.35    0.35    0.35    0.35    0.35    
0.35    0.35    0.35    0.3    0.3    
0.3    0.3    0.3    0.3    0.3    
0.3    0.3    0.3    0.25    0.25    
0.25    0.25    0.25    0.25    0.25    
0.25    0.25    0.25    0.25    0.25    
0.2    0.2    0.2    0.2    0.2    
0.2    0.2    0.2    0.2    0.2    
0.2    0.2    0.15    0.15    0.15    
0.15    0.15    0.15    0.15    0.15    
0.15    0.15    0.15    0.15    0.1    
0.1    0.1    0.1    0.1    0.1    
0.1    0.1    0.1    0.1    0.05    
0.05    0.05    0.05    0.05    0.05    
0.05    0.05    0.05    0.05    0.0    
0.0    0.0    0.0    0.0    0.0    
0.0    0.0    0.0    0.0    -0.05    
-0.05    -0.05    -0.05    -0.05    -0.05    
-0.05    -0.05    -0.05    -0.05    0.5    
0.45    0.45    0.5    0.5    0.45    
0.5    0.45    0.5    0.45    0.5    
0.45    0.5    0.45    0.5    0.45    
0.5    0.45    0.4    0.4    0.4    
0.4    0.4    0.4    0.4    0.4    
0.4    0.35    0.35    0.35    0.35    
0.35    0.35    0.35    0.35    0.35    
0.3    0.3    0.3    0.3    0.3    
0.3    0.3    0.3    0.3    0.25    
0.25    0.25    0.25    0.25    0.25    
0.25    0.25    0.25    0.25    0.25    
0.25    0.2    0.2    0.2    0.2    
0.2    0.2    0.2    0.2    0.2    
0.2    0.2    0.2    0.15    0.15    
0.15    0.15    0.15    0.15    0.15    
0.15    0.15    0.15    0.15    0.15    
0.1    0.1    0.1    0.1    0.1    
0.1    0.1    0.1    0.1    0.1    
0.05    0.05    0.05    0.05    0.05    
0.05    0.05    0.05    0.05    0.05    
0.0    0.0    0.0    0.0    0.0    
0.0    0.0    0.0    0.0    0.0    
-0.05    -0.05    -0.05    -0.05    -0.05    
-0.05    -0.05    -0.05    -0.05    -0.05    
-0.1    -0.1    -0.1    -0.1    0.5    
0.45    0.45    0.5    0.5    0.45    
0.5    0.45    0.5    0.45    0.5    
0.45    0.5    0.45    0.5    0.45    
0.5    0.45    0.4    0.4    0.4    
0.4    0.4    0.4    0.4    0.4    
0.4    0.35    0.35    0.35    0.35    
0.35    0.35    0.35    0.35    0.35    
0.3    0.3    0.3    0.3    0.3    
0.3    0.3    0.3    0.3    0.25    
0.25    0.25    0.25    0.25    0.25    
0.25    0.25    0.25    0.2    0.2    
0.2    0.2    0.2    0.2    0.2    
0.2    0.2    0.15    0.15    0.15    
0.15    0.15    0.15    0.15    0.15    
0.15    0.1    0.1    0.1    0.1    
0.1    0.1    0.1    0.1    0.1    
0.1    0.05    0.05    0.05    0.05    
0.05    0.05    0.05    0.05    0.05    
0.05    0.0    0.0    0.0    0.0    
0.0    0.0    0.0    0.0    0.0    
0.0    -0.05    -0.05    -0.05    -0.05    
-0.05    -0.05    -0.05    -0.05    -0.05    
-0.05    -0.1    -0.1    -0.1    -0.1    
-0.1    0.3    0.3    0.3    0.25    
0.25    0.25    0.2    0.2    0.2    
0.05    0.05    0.05    0.05    0.05    
0.05    0.05    0.05    0.05    0.05    
0.0    0.0    0.0    0.0    0.0    
0.0    0.0    0.0    0.0    0.0    
-0.05    -0.05    -0.05    -0.05    -0.05    
-0.05    -0.05    -0.05    -0.05    -0.05    
-0.1    -0.1    -0.1    -0.1    -0.1    
0.0    0.0    0.0    0.0    0.0    
-0.05    -0.05    -0.05    -0.05    -0.05    
-0.1    -0.1    -0.1    -0.1    
393.691169746    394.5975249    375.174691675    376.306124335    372.46737089    
371.150232403    396.971065293    399.006964312    398.888878254    398.888878264    
394.783010267    396.61134137    396.611341398    392.332270343    394.165068865    
394.165068907    389.494025982    391.427883663    391.42788372    386.122075356    
388.262476617    388.262476688    382.040201273    384.509104679    384.509104756    
377.031308415    379.976936279    379.976936358    370.823451406    374.433516311    
374.433516386    367.591745062    367.591745071    398.798213228    398.756728449    
396.335253735    396.208821519    393.473775255    390.735170112    390.416518496    
387.320861156    386.885975292    383.278900934    382.707570482    378.408498236    
377.674608972    371.538183713    363.995311138    398.655260544    395.899871315    
393.370414004    392.943586857    390.266768731    389.641796502    386.68505105    
385.833404713    382.449829221    381.333314568    377.354208224    375.924013471    
369.346074724    393.208622558    392.584713225    390.030650913    389.117906161    
386.364830686    385.122606578    380.407038248    374.747055908    367.877164593    
392.403688777    388.853805133    384.764597571    399.392037572    399.647307827    
398.951381371    399.618597385    398.192585313    399.342713474    399.656328659    
399.43736532    399.62830547    398.283421224    398.866013607    397.041803848    
398.045935796    399.233191097    399.391482002    397.660765369    398.143655342    
395.648427419    395.969751692    396.801740312    394.030238833    394.073710006    
395.297156321    392.100522861    391.874519497    393.552053034    389.75288297    
389.256403507    391.474554533    386.853151546    386.07843599    388.952766278    
382.164743374    385.846868885    399.04890044    399.170646562    397.09896062    
397.470265514    395.003233001    395.642610508    392.655797682    393.595169294    
389.937009111    391.22336303    386.706668581    388.404504306    382.795688377    
384.990361253    377.995553773    380.797638675    398.971308905    396.862656315    
394.597525004    392.062541052    389.130163793    385.651798034    381.449559984    
372.044667545    376.306124469    369.951931537    398.798213249    396.335253795    
393.691169819    390.735170216    387.320861303    383.278901108    378.408498426    
372.467371039    365.159779544    398.655260555    395.899871342    392.943586891    
389.641796551    385.833404781    381.333314653    375.92401356    369.346074787    
361.287516883    361.287516865    398.586517359    398.545493462    395.690622724    
395.565682527    392.370195106    388.804192671    384.695874215    379.848959593    
374.034528465    366.982198851    359.480849796    358.370844868    398.471125297    
395.585031942    395.339331966    391.982060826    388.237746812    383.927641741    
379.941060473    378.848362813    374.155918345    372.763992635    367.14093968    
365.397835127    358.577794981    356.424196736    395.225108579    391.786271081    
387.952182339    383.540685138    378.344961471    372.125791046    364.603632595    
355.45098006    399.874990583    399.868606959    399.599156206    399.309335683    
399.609323436    398.80820628    397.946695776    399.360401322    398.049009399    
396.639280063    395.059681571    393.229257906    391.052865297    388.415245364    
385.173311325    399.128278414    397.341258988    395.421211235    393.271634855    
390.783768273    387.830545498    384.259262307    379.882333946    398.91874577    
396.702624057    394.322939339    391.661420337    388.585410246    384.940990454    
380.544889373    375.174691865    368.556758134    398.736791217    396.148270654    
393.370414095    390.266768859    386.685051244    382.449829489    377.354208519    
371.150232634    363.537771234    398.586517378    395.690622768    392.584713277    
389.117906237    385.122606689    380.4070384    374.747056066    367.877164702    
359.480849788    398.471125304    395.339331981    391.982060847    388.23774684    
383.927641787    378.848362873    372.763992692    365.397835155    356.424196703    
398.43358994    398.392944354    395.101391851    391.574106768    387.642497112    
383.120574907    377.797583216    371.430382468    363.735825386    354.383664908    
398.353484007    394.98131802    391.368314982    387.342403667    382.714042799    
377.268908109    370.760450426    362.902617338    353.363368099    399.865385445    
399.589347136    398.98428241    399.292501911    398.6070967    396.980772397    
398.959684207    398.157784279    395.860465095    398.573677698    394.526788718    
398.114158025    399.599744022    398.779039255    397.896644447    396.907643228    
395.761127262    394.397136156    399.344715998    398.001254405    396.557342086    
394.939987886    393.066714174    390.84079977    388.145400924    384.835954078    
399.106896252    397.276165313    395.309543663    393.108558422    390.562398106    
387.54188236    383.892198403    379.423823372    398.892217794    396.621873285    
394.184441306    391.459227676    388.311067381    384.583470086    380.090623116    
374.607812667    398.705791465    396.053917995    393.208622631    390.030651028    
386.364830889    382.032787222    376.82474514    370.49018845    354.151795279    
362.727212159    342.548293381    349.180654325    353.170569684    336.529040809    
341.378764845    398.551821794    395.585031982    392.403688822    388.853805204    
384.764597701    379.941060649    374.155918527    367.140939812    358.57779495    
348.088993347    335.230040271    398.433589948    395.225108595    391.786271102    
387.952182378    383.540685214    378.344961569    372.125791138    364.603632636    
355.450979964    398.353484011    394.981318028    391.368314981    387.342403666    
382.71404282    377.268908158    370.760450478    362.902617366    353.363368053    
398.313051753    394.858290783    391.368314915    391.157475448    387.342403575    
387.034981219    382.714042671    382.297642359    376.727502936    370.074553501    
362.049810569    352.319454518    391.15747537    387.034981112    382.297642218    
399.865385444    399.589347133    399.292501906    398.959684197    398.57367769    
397.556350029    398.11415802    396.869230515    392.742807034    397.556350025    
390.707282013    396.869230517    399.599744018    398.779039244    397.896644426    
395.761127237    394.397136136    392.742807031    390.707282028    398.001254388    
396.557342057    394.939987841    393.066714121    390.840799732    388.145400895    
384.835954075    399.106896243    397.276165287    395.309543617    393.10855835    
390.562398036    387.541882291    383.892198344    379.423823335    398.892217783    
396.621873252    394.18444124    391.459227592    388.311067288    384.583469987    
380.090623031    374.607812615    398.705791452    396.05391795    393.208622552    
390.030650918    386.364830776    382.032787095    376.824745026    370.490188337    
398.551821778    395.585031932    392.403688727    388.853805072    384.764597562    
379.941060504    374.155918369    367.140939637    398.433589931    395.225108533    
391.786270994    387.952182224    383.540685061    378.344961398    372.125790953    
364.603632414    398.353483989    394.981317963    391.368314856    387.342403503    
382.714042636    377.268907964    370.760450267    362.902617126    353.363367783    
398.313051738    398.313051734    394.858290729    394.858290725    391.15747534    
387.034981078    382.297642193    376.727502786    376.727502768    370.074553335    
370.074553332    362.049810401    362.049810381    352.319454349    352.319454274    
398.313051717    394.858290673    391.157475257    387.034980963    382.297642049    
376.727502606    370.074553191    362.049810256    352.319454158    380.544889169    
375.174691709    377.354208217    371.150232333    398.353483961    394.981317869    
391.368314699    387.342403271    382.714042323    377.268907647    370.76044994    
362.902616798    353.363367456    398.353483944    394.981317823    391.368314621    
387.342403165    382.714042215    377.268907527    370.760449928    370.760449834    
362.90261683    362.902616689    353.363367555    353.363367299    371.430381586    
363.735824474    354.383663901    383.540684386    377.797582348    378.34496067    
372.125790177    364.6036316    378.848361772    372.763991485    365.397833889    

-0.375    -0.375    -0.125    -0.125    -0.125    
-0.125    -0.425    -0.475    -0.475    -0.475    
-0.375    -0.425    -0.425    -0.325    -0.375    
-0.375    -0.275    -0.325    -0.325    -0.225    
-0.275    -0.275    -0.175    -0.225    -0.225    
-0.125    -0.175    -0.175    -0.075    -0.125    
-0.125    -0.075    -0.075    -0.475    -0.475    
-0.425    -0.425    -0.375    -0.325    -0.325    
-0.275    -0.275    -0.225    -0.225    -0.175    
-0.175    -0.125    -0.075    -0.475    -0.425    
-0.375    -0.375    -0.325    -0.325    -0.275    
-0.275    -0.225    -0.225    -0.175    -0.175    
-0.125    -0.375    -0.375    -0.325    -0.325    
-0.275    -0.275    -0.225    -0.175    -0.125    
-0.375    -0.325    -0.275    -0.375    -0.425    
-0.425    -0.425    -0.375    -0.375    -0.475    
-0.475    -0.475    -0.425    -0.425    -0.375    
-0.375    -0.475    -0.475    -0.425    -0.425    
-0.325    -0.375    -0.375    -0.275    -0.325    
-0.325    -0.225    -0.275    -0.275    -0.175    
-0.225    -0.225    -0.125    -0.175    -0.175    
-0.125    -0.125    -0.475    -0.475    -0.425    
-0.425    -0.375    -0.375    -0.325    -0.325    
-0.275    -0.275    -0.225    -0.225    -0.175    
-0.175    -0.125    -0.125    -0.475    -0.425    
-0.375    -0.325    -0.275    -0.225    -0.175    
-0.075    -0.125    -0.075    -0.475    -0.425    
-0.375    -0.325    -0.275    -0.225    -0.175    
-0.125    -0.075    -0.475    -0.425    -0.375    