Title = " tecplot file for 2D Cavity problem " 
variables = "x", "y", "z", "velX", "cellCentroidY" 
Zone T = "nmesh0" N = 723 E = 500 DATAPACKING = BLOCK, VARLOCATION = ([4-5]=CELLCENTERED), ZONETYPE=FEBRICK
0.45    0.45    0.5    0.5    0.45    
0.5    0.45    0.45    0.45    0.5    
0.5    0.45    0.45    0.5    0.5    
0.45    0.45    0.5    0.5    0.45    
0.45    0.5    0.5    0.45    0.45    
0.5    0.5    0.45    0.45    0.5    
0.5    0.45    0.45    0.5    0.5    
0.45    0.5    0.45    0.5    0.45    
0.5    0.45    0.5    0.45    0.5    
0.45    0.5    0.45    0.5    0.45    
0.5    0.45    0.5    0.45    0.5    
0.45    0.5    0.45    0.5    0.45    
0.5    0.45    0.5    0.45    0.5    
0.45    0.5    0.45    0.5    0.45    
0.5    0.45    0.5    0.45    0.5    
0.45    0.5    0.45    0.5    0.45    
0.5    0.45    0.5    0.45    0.5    
0.45    0.5    0.45    0.5    0.45    
0.5    0.45    0.5    0.45    0.5    
0.45    0.5    0.45    0.5    0.45    
0.5    0.45    0.5    0.45    0.5    
0.45    0.5    0.45    0.5    0.45    
0.5    0.45    0.5    0.45    0.5    
0.45    0.5    0.45    0.5    0.45    
0.5    0.45    0.5    0.45    0.5    
0.45    0.5    0.45    0.5    0.45    
0.5    0.45    0.5    0.45    0.5    
0.45    0.5    0.4    0.4    0.4    
0.4    0.4    0.4    0.4    0.4    
0.4    0.4    0.4    0.4    0.4    
0.4    0.4    0.4    0.4    0.4    
0.4    0.4    0.4    0.4    0.4    
0.4    0.4    0.4    0.4    0.4    
0.4    0.4    0.4    0.4    0.4    
0.4    0.4    0.4    0.4    0.4    
0.4    0.4    0.4    0.4    0.4    
0.4    0.4    0.4    0.4    0.4    
0.4    0.4    0.4    0.4    0.4    
0.4    0.4    0.4    0.4    0.4    
0.4    0.4    0.4    0.4    0.4    
0.4    0.4    0.4    0.4    0.4    
0.4    0.35    0.35    0.35    0.35    
0.35    0.35    0.35    0.35    0.35    
0.35    0.35    0.35    0.35    0.35    
0.35    0.35    0.35    0.35    0.35    
0.35    0.35    0.35    0.35    0.35    
0.35    0.35    0.35    0.35    0.35    
0.35    0.35    0.35    0.35    0.35    
0.35    0.35    0.35    0.35    0.35    
0.35    0.35    0.35    0.35    0.35    
0.35    0.35    0.35    0.35    0.35    
0.35    0.35    0.35    0.35    0.35    
0.35    0.35    0.35    0.35    0.35    
0.35    0.35    0.35    0.35    0.35    
0.35    0.35    0.35    0.35    0.35    
0.3    0.3    0.3    0.3    0.3    
0.3    0.3    0.3    0.3    0.3    
0.3    0.3    0.3    0.3    0.3    
0.3    0.3    0.3    0.3    0.3    
0.3    0.3    0.3    0.3    0.3    
0.3    0.3    0.3    0.3    0.3    
0.3    0.3    0.3    0.3    0.3    
0.3    0.3    0.3    0.3    0.3    
0.3    0.3    0.3    0.3    0.3    
0.3    0.3    0.3    0.3    0.3    
0.3    0.3    0.3    0.3    0.3    
0.3    0.3    0.3    0.3    0.3    
0.3    0.3    0.3    0.3    0.3    
0.3    0.3    0.3    0.3    0.25    
0.25    0.25    0.25    0.25    0.25    
0.25    0.25    0.25    0.25    0.25    
0.25    0.25    0.25    0.25    0.25    
0.25    0.25    0.25    0.25    0.25    
0.25    0.25    0.25    0.25    0.25    
0.25    0.25    0.25    0.25    0.25    
0.25    0.25    0.25    0.25    0.25    
0.25    0.25    0.25    0.25    0.25    
0.25    0.25    0.25    0.25    0.25    
0.25    0.25    0.25    0.25    0.25    
0.25    0.25    0.25    0.25    0.25    
0.25    0.25    0.25    0.25    0.25    
0.25    0.25    0.2    0.2    0.2    
0.2    0.2    0.2    0.2    0.2    
0.2    0.2    0.2    0.2    0.2    
0.2    0.2    0.2    0.2    0.2    
0.2    0.2    0.2    0.2    0.2    
0.2    0.2    0.2    0.2    0.2    
0.2    0.2    0.2    0.2    0.2    
0.2    0.2    0.2    0.2    0.2    
0.2    0.2    0.2    0.2    0.2    
0.2    0.2    0.2    0.2    0.2    
0.2    0.2    0.2    0.2    0.2    
0.2    0.2    0.2    0.2    0.2    
0.2    0.2    0.2    0.2    0.2    
0.15    0.15    0.15    0.15    0.15    
0.15    0.15    0.15    0.15    0.15    
0.15    0.15    0.15    0.15    0.15    
0.15    0.15    0.15    0.15    0.15    
0.15    0.15    0.15    0.15    0.15    
0.15    0.15    0.15    0.15    0.15    
0.15    0.15    0.15    0.15    0.15    
0.15    0.15    0.15    0.15    0.15    
0.15    0.15    0.15    0.15    0.15    
0.15    0.15    0.15    0.15    0.15    
0.15    0.15    0.15    0.15    0.15    
0.15    0.15    0.15    0.15    0.15    
0.15    0.15    0.15    0.1    0.1    
0.1    0.1    0.1    0.1    0.1    
0.1    0.1    0.1    0.1    0.1    
0.1    0.1    0.1    0.1    0.1    
0.1    0.1    0.1    0.1    0.1    
0.1    0.1    0.1    0.1    0.1    
0.1    0.1    0.1    0.1    0.1    
0.1    0.1    0.1    0.1    0.1    
0.1    0.1    0.1    0.1    0.1    
0.1    0.1    0.1    0.1    0.1    
0.1    0.1    0.1    0.1    0.1    
0.1    0.1    0.1    0.1    0.1    
0.1    0.1    0.1    0.1    0.1    
0.1    0.05    0.05    0.05    0.05    
0.05    0.05    0.05    0.05    0.05    
0.05    0.05    0.05    0.05    0.05    
0.05    0.05    0.05    0.05    0.05    
0.05    0.05    0.05    0.05    0.05    
0.05    0.05    0.05    0.05    0.05    
0.05    0.05    0.05    0.05    0.05    
0.05    0.05    0.05    0.05    0.05    
0.05    0.05    0.05    0.05    0.05    
0.05    0.05    0.05    0.05    0.05    
0.05    0.05    0.05    0.05    0.05    
0.05    0.05    0.05    0.05    0.05    
0.05    0.05    0.05    0.05    -1.0408340856e-17    
-2.7755575616e-17    -1.9081958236e-17    0.0    -2.0816681712e-17    -2.7755575616e-17    
0.0    0.0    2.0816681712e-17    0.0    6.9388939039e-18    
0.0    0.0    0.0    -1.3877787808e-17    -2.7755575616e-17    
0.0    0.0    -2.7755575616e-17    -1.0408340856e-17    -2.7755575616e-17    
0.0    0.0    0.0    0.0    -2.7755575616e-17    
0.0    0.0    1.3877787808e-17    0.0    0.0    
2.7755575616e-17    0.0    0.0    0.0    0.0    
2.7755575616e-17    2.7755575616e-17    0.0    2.7755575616e-17    2.7755575616e-17    
2.7755575616e-17    0.0    0.0    0.0    0.0    
6.9388939039e-18    0.0    0.0    2.7755575616e-17    0.0    
0.0    -2.7755575616e-17    0.0    0.0    1.3877787808e-17    
0.0    0.0    2.7755575616e-17    0.0    0.0    
-2.7755575616e-17    0.0    0.5    
-0.45    -0.45    -0.45    -0.45    -0.5    
-0.5    -0.5    -0.4    -0.4    -0.4    
-0.4    -0.35    -0.35    -0.35    -0.35    
-0.3    -0.3    -0.3    -0.3    -0.25    
-0.25    -0.25    -0.25    -0.2    -0.2    
-0.2    -0.2    -0.15    -0.15    -0.15    
-0.15    -0.1    -0.1    -0.1    -0.1    
-0.45    -0.45    -0.5    -0.5    -0.4    
-0.4    -0.35    -0.35    -0.3    -0.3    
-0.25    -0.25    -0.2    -0.2    -0.15    
-0.15    -0.1    -0.1    -0.45    -0.45    
-0.5    -0.5    -0.4    -0.4    -0.35    
-0.35    -0.3    -0.3    -0.25    -0.25    
-0.2    -0.2    -0.15    -0.15    -0.1    
-0.1    -0.45    -0.45    -0.5    -0.5    
-0.4    -0.4    -0.35    -0.35    -0.3    
-0.3    -0.25    -0.25    -0.2    -0.2    
-0.15    -0.15    -0.1    -0.1    -0.45    
-0.45    -0.5    -0.5    -0.4    -0.4    
-0.35    -0.35    -0.3    -0.3    -0.25    
-0.25    -0.2    -0.2    -0.15    -0.15    
-0.1    -0.1    -0.45    -0.45    -0.5    
-0.5    -0.4    -0.4    -0.35    -0.35    
-0.3    -0.3    -0.25    -0.25    -0.2    
-0.2    -0.15    -0.15    -0.1    -0.1    
-0.35    -0.35    -0.3    -0.3    -0.25    
-0.25    -0.2    -0.2    -0.15    -0.15    
-0.1    -0.1    -0.45    -0.45    -0.5    
-0.5    -0.4    -0.4    -0.35    -0.35    
-0.3    -0.3    -0.25    -0.25    -0.2    
-0.2    -0.15    -0.15    -0.1    -0.1    
-0.45    -0.5    -0.4    -0.35    -0.3    
-0.25    -0.2    -0.15    -0.1    -0.45    
-0.5    -0.4    -0.35    -0.3    -0.25    
-0.2    -0.15    -0.1    -0.45    -0.5    
-0.4    -0.35    -0.3    -0.25    -0.2    
-0.15    -0.1    -0.45    -0.5    -0.4    
-0.35    -0.3    -0.25    -0.2    -0.15    
-0.1    -0.45    -0.5    -0.4    -0.35    
-0.3    -0.25    -0.2    -0.15    -0.1    
-0.35    -0.3    -0.25    -0.2    -0.15    
-0.1    -0.45    -0.45    -0.5    -0.5    
-0.4    -0.4    -0.35    -0.35    -0.3    
-0.3    -0.25    -0.25    -0.2    -0.2    
-0.15    -0.15    -0.1    -0.1    -0.45    
-0.5    -0.4    -0.35    -0.3    -0.25    
-0.2    -0.15    -0.1    -0.45    -0.5    
-0.4    -0.35    -0.3    -0.25    -0.2    
-0.15    -0.1    -0.45    -0.5    -0.4    
-0.35    -0.3    -0.25    -0.2    -0.15    
-0.1    -0.45    -0.5    -0.4    -0.35    
-0.3    -0.25    -0.2    -0.15    -0.1    
-0.45    -0.5    -0.4    -0.35    -0.3    
-0.25    -0.2    -0.15    -0.1    -0.35    
-0.3    -0.25    -0.2    -0.15    -0.1    
-0.45    -0.45    -0.5    -0.5    -0.4    
-0.4    -0.35    -0.35    -0.3    -0.3    
-0.25    -0.25    -0.2    -0.2    -0.15    
-0.15    -0.1    -0.1    -0.45    -0.5    
-0.4    -0.35    -0.3    -0.25    -0.2    
-0.15    -0.1    -0.45    -0.5    -0.4    
-0.35    -0.3    -0.25    -0.2    -0.15    
-0.1    -0.45    -0.5    -0.4    -0.35    
-0.3    -0.25    -0.2    -0.15    -0.1    
-0.45    -0.5    -0.4    -0.35    -0.3    
-0.25    -0.2    -0.15    -0.1    -0.45    
-0.5    -0.4    -0.35    -0.3    -0.25    
-0.2    -0.15    -0.1    -0.35    -0.3    
-0.25    -0.2    -0.15    -0.1    -0.45    
-0.45    -0.5    -0.5    -0.4    -0.4    
-0.35    -0.35    -0.3    -0.3    -0.25    
-0.25    -0.2    -0.2    -0.15    -0.15    
-0.1    -0.1    -0.45    -0.5    -0.4    
-0.35    -0.3    -0.25    -0.2    -0.15    
-0.1    -0.45    -0.5    -0.4    -0.35    
-0.3    -0.25    -0.2    -0.15    -0.1    
-0.45    -0.5    -0.4    -0.35    -0.3    
-0.25    -0.2    -0.15    -0.1    -0.45    
-0.5    -0.4    -0.35    -0.3    -0.25    
-0.2    -0.15    -0.1    -0.45    -0.5    
-0.4    -0.35    -0.3    -0.25    -0.2    
-0.15    -0.1    -0.45    -0.45    -0.5    
-0.5    -0.4    -0.4    -0.35    -0.35    
-0.3    -0.3    -0.25    -0.25    -0.2    
-0.2    -0.15    -0.15    -0.1    -0.1    
-0.45    -0.5    -0.4    -0.35    -0.3    
-0.25    -0.2    -0.15    -0.1    -0.45    
-0.5    -0.4    -0.35    -0.3    -0.25    
-0.2    -0.15    -0.1    -0.45    -0.5    
-0.4    -0.35    -0.3    -0.25    -0.2    
-0.15    -0.1    -0.45    -0.5    -0.4    
-0.35    -0.3    -0.25    -0.2    -0.15    
-0.1    -0.45    -0.5    -0.4    -0.35    
-0.3    -0.25    -0.2    -0.15    -0.1    
-0.45    -0.45    -0.5    -0.5    -0.4    
-0.4    -0.35    -0.35    -0.3    -0.3    
-0.25    -0.25    -0.2    -0.2    -0.15    
-0.15    -0.1    -0.1    -0.45    -0.5    
-0.4    -0.35    -0.3    -0.25    -0.2    
-0.15    -0.1    -0.45    -0.5    -0.4    
-0.35    -0.3    -0.25    -0.2    -0.15    
-0.1    -0.45    -0.5    -0.4    -0.35    
-0.3    -0.25    -0.2    -0.15    -0.1    
-0.45    -0.5    -0.4    -0.35    -0.3    
-0.25    -0.2    -0.15    -0.1    -0.45    
-0.5    -0.4    -0.35    -0.3    -0.25    
-0.2    -0.15    -0.1    -0.45    -0.45    
-0.5    -0.5    -0.4    -0.4    -0.35    
-0.35    -0.3    -0.3    -0.25    -0.25    
-0.2    -0.2    -0.15    -0.15    -0.1    
-0.1    -0.45    -0.5    -0.4    -0.35    
-0.3    -0.25    -0.2    -0.15    -0.1    
-0.45    -0.5    -0.4    -0.35    -0.3    
-0.25    -0.2    -0.15    -0.1    -0.45    
-0.5    -0.4    -0.35    -0.3    -0.25    
-0.2    -0.15    -0.1    -0.45    -0.5    
-0.4    -0.35    -0.3    -0.25    -0.2    
-0.15    -0.1    -0.45    -0.5    -0.4    
-0.35    -0.3    -0.25    -0.2    -0.15    
-0.1    -0.45    -0.45    -0.5    -0.5    
-0.4    -0.4    -0.35    -0.35    -0.3    
-0.3    -0.25    -0.25    -0.2    -0.2    
-0.15    -0.15    -0.1    -0.1    -0.45    
-0.5    -0.4    -0.35    -0.3    -0.25    
-0.2    -0.15    -0.1    -0.45    -0.5    
-0.4    -0.35    -0.3    -0.25    -0.2    
-0.15    -0.1    -0.45    -0.5    -0.4    
-0.35    -0.3    -0.25    -0.2    -0.15    
-0.1    -0.45    -0.5    -0.4    -0.35    
-0.3    -0.25    -0.2    -0.15    -0.1    
-0.45    -0.5    -0.4    -0.35    -0.3    
-0.25    -0.2    -0.15    -0.1    -0.45    
-0.45    -0.5    -0.5    -0.4    -0.4    
-0.35    -0.35    -0.3    -0.3    -0.25    
-0.25    -0.2    -0.2    -0.15    -0.15    
-0.1    -0.1    -0.45    -0.5    -0.4    
-0.35    -0.3    -0.25    -0.2    -0.15    
-0.1    -0.45    -0.5    -0.4    -0.35    
-0.3    -0.25    -0.2    -0.15    -0.1    
-0.45    -0.5    -0.4    -0.35    -0.3    
-0.25    -0.2    -0.15    -0.1    -0.45    
-0.5    -0.4    -0.35    -0.3    -0.25    
-0.2    -0.15    -0.1    -0.45    -0.5    
-0.4    -0.35    -0.3    -0.25    -0.2    
-0.15    -0.1    -0.5    
0.5    0.45    0.45    0.5    0.45    
0.45    0.5    0.5    0.45    0.45    
0.5    0.5    0.45    0.45    0.5    
0.5    0.45    0.45    0.5    0.5    
0.45    0.45    0.5    0.5    0.45    
0.45    0.5    0.5    0.45    0.45    
0.5    0.5    0.45    0.45    0.5    
0.4    0.4    0.4    0.4    0.4    
0.4    0.4    0.4    0.4    0.4    
0.4    0.4    0.4    0.4    0.4    
0.4    0.4    0.4    0.35    0.35    
0.35    0.35    0.35    0.35    0.35    
0.35    0.35    0.35    0.35    0.35    
0.35    0.35    0.35    0.35    0.35    
0.35    0.3    0.3    0.3    0.3    
0.3    0.3    0.3    0.3    0.3    
0.3    0.3    0.3    0.3    0.3    
0.3    0.3    0.3    0.3    0.25    
0.25    0.25    0.25    0.25    0.25    
0.25    0.25    0.25    0.25    0.25    
0.25    0.25    0.25    0.25    0.25    
0.25    0.25    0.2    0.2    0.2    
0.2    0.2    0.2    0.2    0.2    
0.2    0.2    0.2    0.2    0.2    
0.2    0.2    0.2    0.2    0.2    
0.15    0.15    0.15    0.15    0.15    
0.15    0.15    0.15    0.15    0.15    
0.15    0.15    0.5    0.45    0.45    
0.5    0.5    0.45    0.5    0.45    
0.5    0.45    0.5    0.45    0.5    
0.45    0.5    0.45    0.5    0.45    
0.4    0.4    0.4    0.4    0.4    
0.4    0.4    0.4    0.4    0.35    
0.35    0.35    0.35    0.35    0.35    
0.35    0.35    0.35    0.3    0.3    
0.3    0.3    0.3    0.3    0.3    
0.3    0.3    0.25    0.25    0.25    
0.25    0.25    0.25    0.25    0.25    
0.25    0.2    0.2    0.2    0.2    
0.2    0.2    0.2    0.2    0.2    
0.15    0.15    0.15    0.15    0.15    
0.15    0.5    0.45    0.45    0.5    
0.5    0.45    0.5    0.45    0.5    
0.45    0.5    0.45    0.5    0.45    
0.5    0.45    0.5    0.45    0.4    
0.4    0.4    0.4    0.4    0.4    
0.4    0.4    0.4    0.35    0.35    
0.35    0.35    0.35    0.35    0.35    
0.35    0.35    0.3    0.3    0.3    
0.3    0.3    0.3    0.3    0.3    
0.3    0.25    0.25    0.25    0.25    
0.25    0.25    0.25    0.25    0.25    
0.2    0.2    0.2    0.2    0.2    
0.2    0.2    0.2    0.2    0.15    
0.15    0.15    0.15    0.15    0.15    
0.5    0.45    0.45    0.5    0.5    
0.45    0.5    0.45    0.5    0.45    
0.5    0.45    0.5    0.45    0.5    
0.45    0.5    0.45    0.4    0.4    
0.4    0.4    0.4    0.4    0.4    
0.4    0.4    0.35    0.35    0.35    
0.35    0.35    0.35    0.35    0.35    
0.35    0.3    0.3    0.3    0.3    
0.3    0.3    0.3    0.3    0.3    
0.25    0.25    0.25    0.25    0.25    
0.25    0.25    0.25    0.25    0.2    
0.2    0.2    0.2    0.2    0.2    
0.2    0.2    0.2    0.15    0.15    
0.15    0.15    0.15    0.15    0.5    
0.45    0.45    0.5    0.5    0.45    
0.5    0.45    0.5    0.45    0.5    
0.45    0.5    0.45    0.5    0.45    
0.5    0.45    0.4    0.4    0.4    
0.4    0.4    0.4    0.4    0.4    
0.4    0.35    0.35    0.35    0.35    
0.35    0.35    0.35    0.35    0.35    
0.3    0.3    0.3    0.3    0.3    
0.3    0.3    0.3    0.3    0.25    
0.25    0.25    0.25    0.25    0.25    
0.25    0.25    0.25    0.2    0.2    
0.2    0.2    0.2    0.2    0.2    
0.2    0.2    0.5    0.45    0.45    
0.5    0.5    0.45    0.5    0.45    
0.5    0.45    0.5    0.45    0.5    
0.45    0.5    0.45    0.5    0.45    
0.4    0.4    0.4    0.4    0.4    
0.4    0.4    0.4    0.4    0.35    
0.35    0.35    0.35    0.35    0.35    
0.35    0.35    0.35    0.3    0.3    
0.3    0.3    0.3    0.3    0.3    
0.3    0.3    0.25    0.25    0.25    
0.25    0.25    0.25    0.25    0.25    
0.25    0.2    0.2    0.2    0.2    
0.2    0.2    0.2    0.2    0.2    
0.5    0.45    0.45    0.5    0.5    
0.45    0.5    0.45    0.5    0.45    
0.5    0.45    0.5    0.45    0.5    
0.45    0.5    0.45    0.4    0.4    
0.4    0.4    0.4    0.4    0.4    
0.4    0.4    0.35    0.35    0.35    
0.35    0.35    0.35    0.35    0.35    
0.35    0.3    0.3    0.3    0.3    
0.3    0.3    0.3    0.3    0.3    
0.25    0.25    0.25    0.25    0.25    
0.25    0.25    0.25    0.25    0.2    
0.2    0.2    0.2    0.2    0.2    
0.2    0.2    0.2    0.5    0.45    
0.45    0.5    0.5    0.45    0.5    
0.45    0.5    0.45    0.5    0.45    
0.5    0.45    0.5    0.45    0.5    
0.45    0.4    0.4    0.4    0.4    
0.4    0.4    0.4    0.4    0.4    
0.35    0.35    0.35    0.35    0.35    
0.35    0.35    0.35    0.35    0.3    
0.3    0.3    0.3    0.3    0.3    
0.3    0.3    0.3    0.25    0.25    
0.25    0.25    0.25    0.25    0.25    
0.25    0.25    0.2    0.2    0.2    
0.2    0.2    0.2    0.2    0.2    
0.2    0.5    0.45    0.45    0.5    
0.5    0.45    0.5    0.45    0.5    
0.45    0.5    0.45    0.5    0.45    
0.5    0.45    0.5    0.45    0.4    
0.4    0.4    0.4    0.4    0.4    
0.4    0.4    0.4    0.35    0.35    
0.35    0.35    0.35    0.35    0.35    
0.35    0.35    0.3    0.3    0.3    
0.3    0.3    0.3    0.3    0.3    
0.3    0.25    0.25    0.25    0.25    
0.25    0.25    0.25    0.25    0.25    
0.2    0.2    0.2    0.2    0.2    
0.2    0.2    0.2    0.2    0.5    
0.45    0.45    0.5    0.5    0.45    
0.5    0.45    0.5    0.45    0.5    
0.45    0.5    0.45    0.5    0.45    
0.5    0.45    0.4    0.4    0.4    
0.4    0.4    0.4    0.4    0.4    
0.4    0.35    0.35    0.35    0.35    
0.35    0.35    0.35    0.35    0.35    
0.3    0.3    0.3    0.3    0.3    
0.3    0.3    0.3    0.3    0.25    
0.25    0.25    0.25    0.25    0.25    
0.25    0.25    0.25    0.2    0.2    
0.2    0.2    0.2    0.2    0.2    
0.2    0.2    0.5    
399.989249662    399.967173436    399.943330211    399.916402124    399.884841437    
399.846733067    399.799596924    399.740085238    399.96803676    399.902403809    
399.831533065    399.751522671    399.657798152    399.544713086    399.404978543    
399.228795852    399.947674897    399.840245912    399.724291694    399.593475518    
399.440392709    399.255945264    399.028458865    398.742359024    399.928692026    
399.782316711    399.62441488    399.446444842    399.238469888    398.988356668    
398.680661375    398.294990028    399.911562002    399.730063292    399.53440114    
399.314116513    399.057105117    398.748692683    398.370373866    397.897993773    
399.896691758    399.684723609    399.456370796    399.199577933    398.900467933    
398.542341771    398.104340644    397.559557129    399.105285584    398.771797776    
398.373345119    397.887359016    397.285041835    399.96803676    399.902403809    
399.831533065    399.75152267    399.657798152    399.544713086    399.404978542    
399.228795852    399.904965709    399.709837489    399.499183069    399.261449832    
398.983117164    398.647536573    398.233285069    397.711681057    399.844424476    
399.52503427    399.180372481    398.791676711    398.337060136    397.789695517    
397.115267847    396.26818476    399.787982594    399.352800869    398.883449775    
398.354637091    397.736989875    396.994727463    396.082450196    394.940450383    
399.737048939    399.197439578    398.615842495    397.961286559    397.197988801    
396.282671353    395.160928588    393.762034105    399.6928336    399.062631592    
398.383855328    397.6208047    396.732452932    395.669546013    394.370752721    
392.757279935    397.340497933    396.350018388    395.167375356    393.726204399    
391.942171715    399.947674897    399.840245912    399.724291694    399.593475518    
399.440392709    399.255945264    399.028458866    398.742359025    399.844424476    
399.52503427    399.180372482    398.791676711    398.337060137    397.789695518    
397.115267849    396.268184762    399.745313863    399.22252439    398.658599371    
398.0230652    397.28048884    396.387635817    395.289532673    393.913693478    
399.652911848    398.940582284    398.172630834    397.307974781    396.299055872    
395.08820117    393.60266552    391.747502675    399.569524801    398.686250283    
397.734622588    396.664329754    395.41742697    393.924144582    392.097289288    
389.824371687    399.497134254    398.465556083    397.354897115    396.107157521    
394.655891769    392.92168195    390.806216754    388.184157182    395.648427365    
394.030238772    392.100522802    389.752882919    386.853151512    399.928692026    
399.782316712    399.624414881    399.446444842    399.238469888    398.988356669    
398.680661377    398.29499003    399.787982594    399.35280087    398.883449777    
398.354637093    397.736989878    396.994727468    396.082450201    394.940450388    
399.652911848    398.940582285    398.172630835    397.307974783    396.299055875    
395.088201173    393.602665525    391.747502682    399.526979391    398.556375481    
397.510556196    396.334129929    394.96325359    393.320977764    391.311017108    
388.808976612    399.41332828    398.209776362    396.913785044    395.457510106    
393.763151044    391.737596764    389.265408606    386.19917445    399.314659981    
397.909002055    396.396387386    394.69859443    392.726392468    390.373769783    
387.510536456    383.972412156    394.073709916    391.87451938    389.256403384    
386.078435868    382.164743273    399.911562002    399.730063293    399.534401141    
399.314116515    399.057105119    398.748692686    398.37037387    397.897993777    
399.73704894    399.197439581    398.615842499    397.961286565    397.197988807    
396.282671361    395.160928598    393.762034117    399.569524801    398.686250286    
397.734622594    396.664329761    395.417426978    393.924144593    392.097289301    
389.824371701    399.413328281    398.209776365    396.913785049    395.457510113    
393.763151051    391.737596773    389.265408617    386.199174467    399.272357424    
397.779917027    396.17385762    394.371070431    392.27672636    389.778128807    
386.736837565    382.978128201    399.149964191    397.406867194    395.532294081    
393.430409187    390.992428409    388.090007685    384.566975575    380.228582542    
399.896691759    399.684723611    399.456370801    399.199577937    398.900467938    
398.542341776    398.10434065    397.559557136    399.692833601    399.062631598    
398.383855341    397.620804713    396.732452947    395.669546028    394.370752739    
392.757279955    399.497134256    398.465556091    397.354897132    396.107157541    
394.655891789    392.921681973    390.806216782    388.184157221    399.314659983    
397.909002064    396.396387408    394.698594455    392.726392497    390.373769816    
387.510536496    383.972412205    399.149964192    397.406867201    395.532294095    
393.430409209    390.992428438    388.090007719    384.566975618    380.228582599    
399.006964305    396.971065259    394.783010209    392.332270256    389.494025868    
386.122075214    382.040201117    377.031308247    399.884414853    399.647307827    
399.392037572    399.105285592    398.771797784    398.373345128    397.887359027    
397.285041847    399.656328658    398.951381366    398.192585308    397.340497956    
396.350018414    395.167375385    393.726204433    391.942171759    399.437365316    
398.283421211    397.041803831    395.648427398    394.030238813    392.100522848    
389.752882974    386.853151576    399.233191089    397.660765345    395.969751655    
394.073709961    391.874519442    389.25640345    386.078435949    382.16474338    
399.048900428    397.09896058    395.003232935    392.655797593    389.937008999    
386.70666845    382.795688248    377.995553674    398.888878245    396.611341332    
394.165068796    391.42788356    388.262476481    384.509104507    379.976936077    
374.433516086    399.874990583    399.618597384    399.342713474    399.033087887    
398.673467415    398.244541918    397.722581123    397.077577573    399.628305467    
398.866013599    398.04593579    397.125866319    396.057747615    394.784615475    
393.23668473    391.326074982    399.391481996    398.143655323    396.801740285    
395.29715629    393.552052998    391.474554501    388.952766263    385.84686891    
399.17064655    397.470265478    395.642610451    393.595169218    391.223362934    
388.404504201    384.990361163    380.79763865    398.971308886    396.862656254    
394.597524903    392.062540911    389.13016361    385.651797819    381.449559762    
376.306124277    398.79821322    396.335253701    393.691169662    390.735169991    
387.320861009    383.27890075    378.408498021    372.467370609    399.868606958    
399.599156204    399.30933568    398.984282409    398.607096698    398.157784282    
397.611904612    396.938750722    399.609323433    398.80820627    397.946695763    
396.980772384    395.860465081    394.526788717    392.907866119    390.913766336    
399.360401314    398.049009377    396.639280027    395.059681525    393.229257847    
391.052865236    388.415245325    385.173311331    399.1282784    397.341258945    
395.421211166    393.271634758    390.783768144    387.830545351    384.259262169    
379.882333876    398.918745747    396.702623986    394.322939219    391.661420166    
388.585410018    384.940990184    380.544889081    375.174691605    398.736791183    
396.148270546    393.370413915    390.266768596    386.685050895    382.449829059    
377.354208031    371.150232108    399.865385445    399.589347135    399.292501909    
398.959684205    398.573677694    398.114158022    397.556350029    396.869230517    
399.599744019    398.779039246    397.896644434    396.907643216    395.761127238    
394.397136129    392.742807016    390.707282008    399.344715993    398.001254385    
396.557342053    394.939987842    393.066714109    390.84079969    388.145400844    
384.835954023    399.10689624    397.276165272    395.309543596    393.108558325    
390.562397968    387.541882191    383.892198226    379.423823215    398.892217772    
396.621873215    394.184441191    391.459227505    388.311067147    384.583469792    
380.090622786    374.60781236    398.705791431    396.053917887    393.208622452    
390.030650766    386.364830525    382.032786772    376.824744618    370.490187885    

-0.475    -0.425    -0.375    -0.325    -0.275    
-0.225    -0.175    -0.125    -0.475    -0.425    
-0.375    -0.325    -0.275    -0.225    -0.175    
-0.125    -0.475    -0.425    -0.375    -0.325    
-0.275    -0.225    -0.175    -0.125    -0.475    
-0.425    -0.375    -0.325    -0.275    -0.225    
-0.175    -0.125    -0.475    -0.425    -0.375    
-0.325    -0.275    -0.225    -0.175    -0.125    
-0.475    -0.425    -0.375    -0.325    -0.275    
-0.225    -0.175    -0.125    -0.325    -0.275    
-0.225    -0.175    -0.125    -0.475    -0.425    
-0.375    -0.325    -0.275    -0.225    -0.175    
-0.125    -0.475    -0.425    -0.375    -0.325    
-0.275    -0.225    -0.175    -0.125    -0.475    
-0.425    -0.375    -0.325    -0.275    -0.225    
-0.175    -0.125    -0.475    -0.425    -0.375    
-0.325    -0.275    -0.225    -0.175    -0.125    
-0.475    -0.425    -0.375    -0.325    -0.275    
-0.225    -0.175    -0.125    -0.475    -0.425    
-0.375    -0.325    -0.275    -0.225    -0.175    
-0.125    -0.325    -0.275    -0.225    -0.175    
-0.125    -0.475    -0.425    -0.375    -0.325    
-0.275    -0.225    -0.175    -0.125    -0.475    
-0.425    -0.375    -0.325    -0.275    -0.225    
-0.175    -0.125    -0.475    -0.425    -0.375    
-0.325    -0.275    -0.225    -0.175    -0.125    
-0.475    -0.425    -0.375    -0.325    -0.275    
-0.225    -0.175    -0.125    -0.475    -0.425    
-0.375    -0.325    -0.275    -0.225    -0.175    
-0.125    -0.475    -0.425    -0.375    -0.325    
-0.275    -0.225    -0.175    -0.125    -0.325    
-0.275    -0.225    -0.175    -0.125    -0.475    
-0.425    -0.375    -0.325    -0.275    -0.225    
-0.175    -0.125    -0.475    -0.425    -0.375    
-0.325    -0.275    -0.225    -0.175    -0.125    
-0.475    -0.425    -0.375    -0.325    -0.275    
-0.225    -0.175    -0.125    -0.475    -0.425    
-0.375    -0.325    -0.275    -0.225    -0.175    
-0.125    -0.475    -0.425    -0.375    -0.325    
-0.275    -0.225    -0.175    -0.125    -0.475    
-0.425    -0.375    -0.325    -0.275    -0.225    
-0.175    -0.125    -0.325    -0.275    -0.225    
-0.175    -0.125    -0.475    -0.425    -0.375    
-0.325    -0.275    -0.225    -0.175    -0.125    
-0.475    -0.425    -0.375    -0.325    -0.275    
-0.225    -0.175    -0.125    -0.475    -0.425    
-0.375    -0.325    -0.275    -0.225    -0.175    
-0.125    -0.475    -0.425    -0.375    -0.325    
-0.275    -0.225    -0.175    -0.125    -0.475    
-0.425    -0.375    -0.325    -0.275    -0.225    
-0.175    -0.125    -0.475    -0.425    -0.375    
-0.325    -0.275    -0.225    -0.175    -0.125    
-0.475    -0.425    -0.375    -0.325    -0.275    
-0.225    -0.175    -0.125    -0.475    -0.425    
-0.375    -0.325    -0.275    -0.225    -0.175    
-0.125    -0.475    -0.425    -0.375    -0.325    
-0.275    -0.225    -0.175    -0.125    -0.475    
-0.425    -0.375    -0.325    -0.275    -0.225    
-0.175    -0.125    -0.475    -0.425    -0.375    
-0.325    -0.275    -0.225    -0.175    -0.125    
-0.475    -0.425    -0.375    -0.325    -0.275    
-0.225    -0.175    -0.125    -0.475    -0.425    
-0.375    -0.325    -0.275    -0.225    -0.175    
-0.125    -0.475    -0.425    -0.375    -0.325    
-0.275    -0.225    -0.175    -0.125    -0.475    
-0.425    -0.375    -0.325    -0.275    -0.225    
-0.175    -0.125    -0.475    -0.425    -0.375    
-0.325    -0.275    -0.225    -0.175    -0.125    
-0.475    -0.425    -0.375    -0.325    -0.275    
-0.225    -0.175    -0.125    -0.475    -0.425    