Title = " tecplot file for 2D Cavity problem " 
variables = "x", "y", "z", "velX", "cellCentroidY" 
Zone T = "nmesh0" N = 726 E = 500 DATAPACKING = BLOCK, VARLOCATION = ([4-5]=CELLCENTERED), ZONETYPE=FEBRICK
0.0    0.0    0.0    0.0    0.0    
0.0    0.0    0.0    0.0    0.0    
0.0    0.0    0.0    0.0    0.0    
0.0    0.0    0.0    0.0    0.0    
0.0    0.0    0.0    0.0    -2.7755575616e-17    
-2.7755575616e-17    -2.7755575616e-17    -2.7755575616e-17    0.0    0.0    
0.0    0.0    0.0    0.0    0.0    
0.0    0.0    0.0    0.0    0.0    
0.0    0.0    0.0    -2.4651903288e-32    0.0    
0.0    0.0    0.0    0.0    0.0    
0.0    0.0    0.0    0.0    0.0    
0.0    0.0    0.0    0.0    0.0    
0.0    0.0    0.0    0.0    0.0    
0.0    -0.05    -0.05    -0.05    -0.05    
-0.05    -0.05    -0.05    -0.05    -0.05    
-0.05    -0.05    -0.05    -0.05    -0.05    
-0.05    -0.05    -0.05    -0.05    -0.05    
-0.05    -0.05    -0.05    -0.05    -0.05    
-0.05    -0.05    -0.05    -0.05    -0.05    
-0.05    -0.05    -0.05    -0.05    -0.05    
-0.05    -0.05    -0.05    -0.05    -0.05    
-0.05    -0.05    -0.05    -0.05    -0.05    
-0.05    -0.05    -0.05    -0.05    -0.05    
-0.05    -0.05    -0.05    -0.05    -0.05    
-0.05    -0.05    -0.05    -0.05    -0.05    
-0.05    -0.05    -0.05    -0.05    -0.05    
-0.05    -0.05    -0.1    -0.1    -0.1    
-0.1    -0.1    -0.1    -0.1    -0.1    
-0.1    -0.1    -0.1    -0.1    -0.1    
-0.1    -0.1    -0.1    -0.1    -0.1    
-0.1    -0.1    -0.1    -0.1    -0.1    
-0.1    -0.1    -0.1    -0.1    -0.1    
-0.1    -0.1    -0.1    -0.1    -0.1    
-0.1    -0.1    -0.1    -0.1    -0.1    
-0.1    -0.1    -0.1    -0.1    -0.1    
-0.1    -0.1    -0.1    -0.1    -0.1    
-0.1    -0.1    -0.1    -0.1    -0.1    
-0.1    -0.1    -0.1    -0.1    -0.1    
-0.1    -0.1    -0.1    -0.1    -0.1    
-0.1    -0.1    -0.1    -0.15    -0.15    
-0.15    -0.15    -0.15    -0.15    -0.15    
-0.15    -0.15    -0.15    -0.15    -0.15    
-0.15    -0.15    -0.15    -0.15    -0.15    
-0.15    -0.15    -0.15    -0.15    -0.15    
-0.15    -0.15    -0.15    -0.15    -0.15    
-0.15    -0.15    -0.15    -0.15    -0.15    
-0.15    -0.15    -0.15    -0.15    -0.15    
-0.15    -0.15    -0.15    -0.15    -0.15    
-0.15    -0.15    -0.15    -0.15    -0.15    
-0.15    -0.15    -0.15    -0.15    -0.15    
-0.15    -0.15    -0.15    -0.15    -0.15    
-0.15    -0.15    -0.15    -0.15    -0.15    
-0.15    -0.15    -0.15    -0.15    -0.2    
-0.2    -0.2    -0.2    -0.2    -0.2    
-0.2    -0.2    -0.2    -0.2    -0.2    
-0.2    -0.2    -0.2    -0.2    -0.2    
-0.2    -0.2    -0.2    -0.2    -0.2    
-0.2    -0.2    -0.2    -0.2    -0.2    
-0.2    -0.2    -0.2    -0.2    -0.2    
-0.2    -0.2    -0.2    -0.2    -0.2    
-0.2    -0.2    -0.2    -0.2    -0.2    
-0.2    -0.2    -0.2    -0.2    -0.2    
-0.2    -0.2    -0.2    -0.2    -0.2    
-0.2    -0.2    -0.2    -0.2    -0.2    
-0.2    -0.2    -0.2    -0.2    -0.2    
-0.2    -0.2    -0.2    -0.2    -0.2    
-0.25    -0.25    -0.25    -0.25    -0.25    
-0.25    -0.25    -0.25    -0.25    -0.25    
-0.25    -0.25    -0.25    -0.25    -0.25    
-0.25    -0.25    -0.25    -0.25    -0.25    
-0.25    -0.25    -0.25    -0.25    -0.25    
-0.25    -0.25    -0.25    -0.25    -0.25    
-0.25    -0.25    -0.25    -0.25    -0.25    
-0.25    -0.25    -0.25    -0.25    -0.25    
-0.25    -0.25    -0.25    -0.25    -0.25    
-0.25    -0.25    -0.25    -0.25    -0.25    
-0.25    -0.25    -0.25    -0.25    -0.25    
-0.25    -0.25    -0.25    -0.25    -0.25    
-0.25    -0.25    -0.25    -0.25    -0.25    
-0.25    -0.3    -0.3    -0.3    -0.3    
-0.3    -0.3    -0.3    -0.3    -0.3    
-0.3    -0.3    -0.3    -0.3    -0.3    
-0.3    -0.3    -0.3    -0.3    -0.3    
-0.3    -0.3    -0.3    -0.3    -0.3    
-0.3    -0.3    -0.3    -0.3    -0.3    
-0.3    -0.3    -0.3    -0.3    -0.3    
-0.3    -0.3    -0.3    -0.3    -0.3    
-0.3    -0.3    -0.3    -0.3    -0.3    
-0.3    -0.3    -0.3    -0.3    -0.3    
-0.3    -0.3    -0.3    -0.3    -0.3    
-0.3    -0.3    -0.3    -0.3    -0.3    
-0.3    -0.3    -0.3    -0.3    -0.3    
-0.3    -0.3    -0.35    -0.35    -0.35    
-0.35    -0.35    -0.35    -0.35    -0.35    
-0.35    -0.35    -0.35    -0.35    -0.35    
-0.35    -0.35    -0.35    -0.35    -0.35    
-0.35    -0.35    -0.35    -0.35    -0.35    
-0.35    -0.35    -0.35    -0.35    -0.35    
-0.35    -0.35    -0.35    -0.35    -0.35    
-0.35    -0.35    -0.35    -0.35    -0.35    
-0.35    -0.35    -0.35    -0.35    -0.35    
-0.35    -0.35    -0.35    -0.35    -0.35    
-0.35    -0.35    -0.35    -0.35    -0.35    
-0.35    -0.35    -0.35    -0.35    -0.35    
-0.35    -0.35    -0.35    -0.35    -0.35    
-0.35    -0.35    -0.35    -0.4    -0.4    
-0.4    -0.4    -0.4    -0.4    -0.4    
-0.4    -0.4    -0.4    -0.4    -0.4    
-0.4    -0.4    -0.4    -0.4    -0.4    
-0.4    -0.4    -0.4    -0.4    -0.4    
-0.4    -0.4    -0.4    -0.4    -0.4    
-0.4    -0.4    -0.4    -0.4    -0.4    
-0.4    -0.4    -0.4    -0.4    -0.4    
-0.4    -0.4    -0.4    -0.4    -0.4    
-0.4    -0.4    -0.4    -0.4    -0.4    
-0.4    -0.4    -0.4    -0.4    -0.4    
-0.4    -0.4    -0.4    -0.4    -0.4    
-0.4    -0.4    -0.4    -0.4    -0.4    
-0.4    -0.4    -0.4    -0.4    -0.45    
-0.45    -0.45    -0.45    -0.45    -0.45    
-0.45    -0.45    -0.45    -0.45    -0.45    
-0.45    -0.45    -0.45    -0.45    -0.45    
-0.45    -0.45    -0.45    -0.45    -0.45    
-0.45    -0.45    -0.45    -0.45    -0.45    
-0.45    -0.45    -0.45    -0.45    -0.45    
-0.45    -0.45    -0.45    -0.45    -0.45    
-0.45    -0.45    -0.45    -0.45    -0.45    
-0.45    -0.45    -0.45    -0.45    -0.45    
-0.45    -0.45    -0.45    -0.45    -0.45    
-0.45    -0.45    -0.45    -0.45    -0.45    
-0.45    -0.45    -0.45    -0.45    -0.45    
-0.45    -0.45    -0.45    -0.45    -0.45    
-0.5    -0.5    -0.5    -0.5    -0.5    
-0.5    -0.5    -0.5    -0.5    -0.5    
-0.5    -0.5    -0.5    -0.5    -0.5    
-0.5    -0.5    -0.5    -0.5    -0.5    
-0.5    -0.5    -0.5    -0.5    -0.5    
-0.5    -0.5    -0.5    -0.5    -0.5    
-0.5    -0.5    -0.5    -0.5    -0.5    
-0.5    -0.5    -0.5    -0.5    -0.5    
-0.5    -0.5    -0.5    -0.5    -0.5    
-0.5    -0.5    -0.5    -0.5    -0.5    
-0.5    -0.5    -0.5    -0.5    -0.5    
-0.5    -0.5    -0.5    -0.5    -0.5    
-0.5    -0.5    -0.5    -0.5    -0.5    
-0.5    
-0.5    -0.45    -0.45    -0.5    -0.4    
-0.4    -0.35    -0.35    -0.3    -0.3    
-0.25    -0.25    -0.5    -0.45    -0.4    
-0.35    -0.3    -0.25    -0.5    -0.45    
-0.4    -0.35    -0.3    -0.25    -0.5    
-0.45    -0.4    -0.35    -0.3    -0.25    
-0.5    -0.45    -0.4    -0.35    -0.3    
-0.25    -0.5    -0.45    -0.4    -0.35    
-0.3    -0.25    -0.5    -0.45    -0.4    
-0.35    -0.3    -0.25    -0.5    -0.45    
-0.4    -0.35    -0.3    -0.25    -0.5    
-0.45    -0.4    -0.35    -0.3    -0.25    
-0.5    -0.45    -0.4    -0.35    -0.3    
-0.25    -0.45    -0.5    -0.4    -0.35    
-0.3    -0.25    -0.45    -0.5    -0.4    
-0.35    -0.3    -0.25    -0.45    -0.5    
-0.4    -0.35    -0.3    -0.25    -0.45    
-0.5    -0.4    -0.35    -0.3    -0.25    
-0.45    -0.5    -0.4    -0.35    -0.3    
-0.25    -0.45    -0.5    -0.4    -0.35    
-0.3    -0.25    -0.45    -0.5    -0.4    
-0.35    -0.3    -0.25    -0.45    -0.5    
-0.4    -0.35    -0.3    -0.25    -0.45    
-0.5    -0.4    -0.35    -0.3    -0.25    
-0.45    -0.5    -0.4    -0.35    -0.3    
-0.25    -0.45    -0.5    -0.4    -0.35    
-0.3    -0.25    -0.45    -0.5    -0.4    
-0.35    -0.3    -0.25    -0.45    -0.5    
-0.4    -0.35    -0.3    -0.25    -0.45    
-0.5    -0.4    -0.35    -0.3    -0.25    
-0.45    -0.5    -0.4    -0.35    -0.3    
-0.25    -0.45    -0.5    -0.4    -0.35    
-0.3    -0.25    -0.45    -0.5    -0.4    
-0.35    -0.3    -0.25    -0.45    -0.5    
-0.4    -0.35    -0.3    -0.25    -0.45    
-0.5    -0.4    -0.35    -0.3    -0.25    
-0.45    -0.5    -0.4    -0.35    -0.3    
-0.25    -0.45    -0.5    -0.4    -0.35    
-0.3    -0.25    -0.45    -0.5    -0.4    
-0.35    -0.3    -0.25    -0.45    -0.5    
-0.4    -0.35    -0.3    -0.25    -0.45    
-0.5    -0.4    -0.35    -0.3    -0.25    
-0.45    -0.5    -0.4    -0.35    -0.3    
-0.25    -0.45    -0.5    -0.4    -0.35    
-0.3    -0.25    -0.45    -0.5    -0.4    
-0.35    -0.3    -0.25    -0.45    -0.5    
-0.4    -0.35    -0.3    -0.25    -0.45    
-0.5    -0.4    -0.35    -0.3    -0.25    
-0.45    -0.5    -0.4    -0.35    -0.3    
-0.25    -0.45    -0.5    -0.4    -0.35    
-0.3    -0.25    -0.45    -0.5    -0.4    
-0.35    -0.3    -0.25    -0.45    -0.5    
-0.4    -0.35    -0.3    -0.25    -0.45    
-0.5    -0.4    -0.35    -0.3    -0.25    
-0.45    -0.5    -0.4    -0.35    -0.3    
-0.25    -0.45    -0.5    -0.4    -0.35    
-0.3    -0.25    -0.45    -0.5    -0.4    
-0.35    -0.3    -0.25    -0.45    -0.5    
-0.4    -0.35    -0.3    -0.25    -0.45    
-0.5    -0.4    -0.35    -0.3    -0.25    
-0.45    -0.5    -0.4    -0.35    -0.3    
-0.25    -0.45    -0.5    -0.4    -0.35    
-0.3    -0.25    -0.45    -0.5    -0.4    
-0.35    -0.3    -0.25    -0.45    -0.5    
-0.4    -0.35    -0.3    -0.25    -0.45    
-0.5    -0.4    -0.35    -0.3    -0.25    
-0.45    -0.5    -0.4    -0.35    -0.3    
-0.25    -0.45    -0.5    -0.4    -0.35    
-0.3    -0.25    -0.45    -0.5    -0.4    
-0.35    -0.3    -0.25    -0.45    -0.5    
-0.4    -0.35    -0.3    -0.25    -0.45    
-0.5    -0.4    -0.35    -0.3    -0.25    
-0.45    -0.5    -0.4    -0.35    -0.3    
-0.25    -0.45    -0.5    -0.4    -0.35    
-0.3    -0.25    -0.45    -0.5    -0.4    
-0.35    -0.3    -0.25    -0.45    -0.5    
-0.4    -0.35    -0.3    -0.25    -0.45    
-0.5    -0.4    -0.35    -0.3    -0.25    
-0.45    -0.5    -0.4    -0.35    -0.3    
-0.25    -0.45    -0.5    -0.4    -0.35    
-0.3    -0.25    -0.45    -0.5    -0.4    
-0.35    -0.3    -0.25    -0.45    -0.5    
-0.4    -0.35    -0.3    -0.25    -0.45    
-0.5    -0.4    -0.35    -0.3    -0.25    
-0.45    -0.5    -0.4    -0.35    -0.3    
-0.25    -0.45    -0.5    -0.4    -0.35    
-0.3    -0.25    -0.45    -0.5    -0.4    
-0.35    -0.3    -0.25    -0.45    -0.5    
-0.4    -0.35    -0.3    -0.25    -0.45    
-0.5    -0.4    -0.35    -0.3    -0.25    
-0.45    -0.5    -0.4    -0.35    -0.3    
-0.25    -0.45    -0.5    -0.4    -0.35    
-0.3    -0.25    -0.45    -0.5    -0.4    
-0.35    -0.3    -0.25    -0.45    -0.5    
-0.4    -0.35    -0.3    -0.25    -0.45    
-0.5    -0.4    -0.35    -0.3    -0.25    
-0.45    -0.5    -0.4    -0.35    -0.3    
-0.25    -0.45    -0.5    -0.4    -0.35    
-0.3    -0.25    -0.45    -0.5    -0.4    
-0.35    -0.3    -0.25    -0.45    -0.5    
-0.4    -0.35    -0.3    -0.25    -0.45    
-0.5    -0.4    -0.35    -0.3    -0.25    
-0.45    -0.5    -0.4    -0.35    -0.3    
-0.25    -0.45    -0.5    -0.4    -0.35    
-0.3    -0.25    -0.45    -0.5    -0.4    
-0.35    -0.3    -0.25    -0.45    -0.5    
-0.4    -0.35    -0.3    -0.25    -0.45    
-0.5    -0.4    -0.35    -0.3    -0.25    
-0.45    -0.5    -0.4    -0.35    -0.3    
-0.25    -0.45    -0.5    -0.4    -0.35    
-0.3    -0.25    -0.45    -0.5    -0.4    
-0.35    -0.3    -0.25    -0.45    -0.5    
-0.4    -0.35    -0.3    -0.25    -0.45    
-0.5    -0.4    -0.35    -0.3    -0.25    
-0.45    -0.5    -0.4    -0.35    -0.3    
-0.25    -0.45    -0.5    -0.4    -0.35    
-0.3    -0.25    -0.45    -0.5    -0.4    
-0.35    -0.3    -0.25    -0.45    -0.5    
-0.4    -0.35    -0.3    -0.25    -0.45    
-0.5    -0.4    -0.35    -0.3    -0.25    
-0.45    -0.5    -0.4    -0.35    -0.3    
-0.25    -0.45    -0.5    -0.4    -0.35    
-0.3    -0.25    -0.45    -0.5    -0.4    
-0.35    -0.3    -0.25    -0.45    -0.5    
-0.4    -0.35    -0.3    -0.25    -0.45    
-0.5    -0.4    -0.35    -0.3    -0.25    
-0.45    -0.5    -0.4    -0.35    -0.3    
-0.25    -0.45    -0.5    -0.4    -0.35    
-0.3    -0.25    -0.45    -0.5    -0.4    
-0.35    -0.3    -0.25    -0.45    -0.5    
-0.4    -0.35    -0.3    -0.25    -0.45    
-0.5    -0.4    -0.35    -0.3    -0.25    
-0.45    -0.5    -0.4    -0.35    -0.3    
-0.25    -0.45    -0.5    -0.4    -0.35    
-0.3    -0.25    -0.45    -0.5    -0.4    
-0.35    -0.3    -0.25    -0.45    -0.5    
-0.4    -0.35    -0.3    -0.25    -0.45    
-0.5    -0.4    -0.35    -0.3    -0.25    
-0.45    -0.5    -0.4    -0.35    -0.3    
-0.25    -0.45    -0.5    -0.4    -0.35    
-0.3    -0.25    -0.45    -0.5    -0.4    
-0.35    -0.3    -0.25    -0.45    -0.5    
-0.4    -0.35    -0.3    -0.25    -0.45    
-0.5    -0.4    -0.35    -0.3    -0.25    
-0.45    -0.4    -0.35    -0.3    -0.25    
-0.5    
-0.05    -0.05    0.0    0.0    -0.05    
0.0    -0.05    0.0    -0.05    0.0    
-0.05    0.0    -0.1    -0.1    -0.1    
-0.1    -0.1    -0.1    -0.15    -0.15    
-0.15    -0.15    -0.15    -0.15    -0.2    
-0.2    -0.2    -0.2    -0.2    -0.2    
-0.25    -0.25    -0.25    -0.25    -0.25    
-0.25    -0.3    -0.3    -0.3    -0.3    
-0.3    -0.3    -0.35    -0.35    -0.35    
-0.35    -0.35    -0.35    -0.4    -0.4    
-0.4    -0.4    -0.4    -0.4    -0.45    
-0.45    -0.45    -0.45    -0.45    -0.45    
-0.5    -0.5    -0.5    -0.5    -0.5    
-0.5    0.0    0.0    0.0    0.0    
0.0    0.0    -0.05    -0.05    -0.05    
-0.05    -0.05    -0.05    -0.1    -0.1    
-0.1    -0.1    -0.1    -0.1    -0.15    
-0.15    -0.15    -0.15    -0.15    -0.15    
-0.2    -0.2    -0.2    -0.2    -0.2    
-0.2    -0.25    -0.25    -0.25    -0.25    
-0.25    -0.25    -0.3    -0.3    -0.3    
-0.3    -0.3    -0.3    -0.35    -0.35    
-0.35    -0.35    -0.35    -0.35    -0.4    
-0.4    -0.4    -0.4    -0.4    -0.4    
-0.45    -0.45    -0.45    -0.45    -0.45    
-0.45    -0.5    -0.5    -0.5    -0.5    
-0.5    -0.5    0.0    0.0    0.0    
0.0    0.0    0.0    -0.05    -0.05    
-0.05    -0.05    -0.05    -0.05    -0.1    
-0.1    -0.1    -0.1    -0.1    -0.1    
-0.15    -0.15    -0.15    -0.15    -0.15    
-0.15    -0.2    -0.2    -0.2    -0.2    
-0.2    -0.2    -0.25    -0.25    -0.25    
-0.25    -0.25    -0.25    -0.3    -0.3    
-0.3    -0.3    -0.3    -0.3    -0.35    
-0.35    -0.35    -0.35    -0.35    -0.35    
-0.4    -0.4    -0.4    -0.4    -0.4    
-0.4    -0.45    -0.45    -0.45    -0.45    
-0.45    -0.45    -0.5    -0.5    -0.5    
-0.5    -0.5    -0.5    0.0    0.0    
0.0    0.0    0.0    0.0    -0.05    
-0.05    -0.05    -0.05    -0.05    -0.05    
-0.1    -0.1    -0.1    -0.1    -0.1    
-0.1    -0.15    -0.15    -0.15    -0.15    
-0.15    -0.15    -0.2    -0.2    -0.2    
-0.2    -0.2    -0.2    -0.25    -0.25    
-0.25    -0.25    -0.25    -0.25    -0.3    
-0.3    -0.3    -0.3    -0.3    -0.3    
-0.35    -0.35    -0.35    -0.35    -0.35    
-0.35    -0.4    -0.4    -0.4    -0.4    
-0.4    -0.4    -0.45    -0.45    -0.45    
-0.45    -0.45    -0.45    -0.5    -0.5    
-0.5    -0.5    -0.5    -0.5    0.0    
0.0    0.0    0.0    0.0    0.0    
-0.05    -0.05    -0.05    -0.05    -0.05    
-0.05    -0.1    -0.1    -0.1    -0.1    
-0.1    -0.1    -0.15    -0.15    -0.15    
-0.15    -0.15    -0.15    -0.2    -0.2    
-0.2    -0.2    -0.2    -0.2    -0.25    
-0.25    -0.25    -0.25    -0.25    -0.25    
-0.3    -0.3    -0.3    -0.3    -0.3    
-0.3    -0.35    -0.35    -0.35    -0.35    
-0.35    -0.35    -0.4    -0.4    -0.4    
-0.4    -0.4    -0.4    -0.45    -0.45    
-0.45    -0.45    -0.45    -0.45    -0.5    
-0.5    -0.5    -0.5    -0.5    -0.5    
0.0    0.0    0.0    0.0    0.0    
0.0    -0.05    -0.05    -0.05    -0.05    
-0.05    -0.05    -0.1    -0.1    -0.1    
-0.1    -0.1    -0.1    -0.15    -0.15    
-0.15    -0.15    -0.15    -0.15    -0.2    
-0.2    -0.2    -0.2    -0.2    -0.2    
-0.25    -0.25    -0.25    -0.25    -0.25    
-0.25    -0.3    -0.3    -0.3    -0.3    
-0.3    -0.3    -0.35    -0.35    -0.35    
-0.35    -0.35    -0.35    -0.4    -0.4    
-0.4    -0.4    -0.4    -0.4    -0.45    
-0.45    -0.45    -0.45    -0.45    -0.45    
-0.5    -0.5    -0.5    -0.5    -0.5    
-0.5    0.0    0.0    0.0    0.0    
0.0    0.0    -0.05    -0.05    -0.05    
-0.05    -0.05    -0.05    -0.1    -0.1    
-0.1    -0.1    -0.1    -0.1    -0.15    
-0.15    -0.15    -0.15    -0.15    -0.15    
-0.2    -0.2    -0.2    -0.2    -0.2    
-0.2    -0.25    -0.25    -0.25    -0.25    
-0.25    -0.25    -0.3    -0.3    -0.3    
-0.3    -0.3    -0.3    -0.35    -0.35    
-0.35    -0.35    -0.35    -0.35    -0.4    
-0.4    -0.4    -0.4    -0.4    -0.4    
-0.45    -0.45    -0.45    -0.45    -0.45    
-0.45    -0.5    -0.5    -0.5    -0.5    
-0.5    -0.5    0.0    0.0    0.0    
0.0    0.0    0.0    -0.05    -0.05    
-0.05    -0.05    -0.05    -0.05    -0.1    
-0.1    -0.1    -0.1    -0.1    -0.1    
-0.15    -0.15    -0.15    -0.15    -0.15    
-0.15    -0.2    -0.2    -0.2    -0.2    
-0.2    -0.2    -0.25    -0.25    -0.25    
-0.25    -0.25    -0.25    -0.3    -0.3    
-0.3    -0.3    -0.3    -0.3    -0.35    
-0.35    -0.35    -0.35    -0.35    -0.35    
-0.4    -0.4    -0.4    -0.4    -0.4    
-0.4    -0.45    -0.45    -0.45    -0.45    
-0.45    -0.45    -0.5    -0.5    -0.5    
-0.5    -0.5    -0.5    0.0    0.0    
0.0    0.0    0.0    0.0    -0.05    
-0.05    -0.05    -0.05    -0.05    -0.05    
-0.1    -0.1    -0.1    -0.1    -0.1    
-0.1    -0.15    -0.15    -0.15    -0.15    
-0.15    -0.15    -0.2    -0.2    -0.2    
-0.2    -0.2    -0.2    -0.25    -0.25    
-0.25    -0.25    -0.25    -0.25    -0.3    
-0.3    -0.3    -0.3    -0.3    -0.3    
-0.35    -0.35    -0.35    -0.35    -0.35    
-0.35    -0.4    -0.4    -0.4    -0.4    
-0.4    -0.4    -0.45    -0.45    -0.45    
-0.45    -0.45    -0.45    -0.5    -0.5    
-0.5    -0.5    -0.5    -0.5    0.0    
0.0    0.0    0.0    0.0    0.0    
-0.05    -0.05    -0.05    -0.05    -0.05    
-0.05    -0.1    -0.1    -0.1    -0.1    
-0.1    -0.1    -0.15    -0.15    -0.15    
-0.15    -0.15    -0.15    -0.2    -0.2    
-0.2    -0.2    -0.2    -0.2    -0.25    
-0.25    -0.25    -0.25    -0.25    -0.25    
-0.3    -0.3    -0.3    -0.3    -0.3    
-0.3    -0.35    -0.35    -0.35    -0.35    
-0.35    -0.35    -0.4    -0.4    -0.4    
-0.4    -0.4    -0.4    -0.45    -0.45    
-0.45    -0.45    -0.45    -0.45    -0.5    
-0.5    -0.5    -0.5    -0.5    -0.5    
0.0    0.0    0.0    0.0    0.0    
0.0    -0.05    -0.05    -0.05    -0.05    
-0.05    -0.05    -0.1    -0.1    -0.1    
-0.1    -0.1    -0.1    -0.15    -0.15    
-0.15    -0.15    -0.15    -0.15    -0.2    
-0.2    -0.2    -0.2    -0.2    -0.2    
-0.25    -0.25    -0.25    -0.25    -0.25    
-0.25    -0.3    -0.3    -0.3    -0.3    
-0.3    -0.3    -0.35    -0.35    -0.35    
-0.35    -0.35    -0.35    -0.4    -0.4    
-0.4    -0.4    -0.4    -0.4    -0.45    
-0.45    -0.45    -0.45    -0.45    -0.45    
-0.5    -0.5    -0.5    -0.5    -0.5    
-0.5    
398.313051702    394.858290616    391.157475144    387.03498078    382.297641741    
398.353483941    394.98131781    391.368314605    387.34240312    382.714042046    
398.433589866    395.225108347    391.786270682    387.952181757    383.540684353    
398.551821711    395.585031733    392.4036884    388.853804588    384.764596841    
398.70579139    396.05391777    393.208622256    390.030650478    386.364830119    
398.892217732    396.6218731    394.184440994    391.459227212    388.31106673    
399.106896205    397.276165172    395.309543419    393.108558055    390.562397603    
399.344715967    398.001254306    396.55734191    394.939987628    393.066713824    
399.599744002    398.779039195    397.896644345    396.907643084    395.761127062    
399.865385439    399.589347115    399.292501877    398.959684159    398.573677629    
398.353483946    394.981317826    391.368314632    387.342403158    382.714042101    
398.392944277    395.101391613    391.574106362    387.642496519    383.120574087    
398.471125222    395.339331732    391.982060428    388.237746225    383.927640932    
398.586517298    395.690622529    392.584712873    389.117905639    385.122605859    
398.736791145    396.148270437    393.370413731    390.266768318    386.685050489    
398.918745709    396.702623877    394.322939033    391.661419874    388.585409617    
399.128278367    397.341258849    395.421210993    393.271634497    390.783767791    
399.360401289    398.0490093    396.639279893    395.059681324    393.229257576    
399.609323417    398.808206221    397.946695679    396.98077226    395.860464912    
399.868606952    399.599156186    399.30933565    398.984282364    398.607096636    
398.433589879    395.225108387    391.786270747    387.952181855    383.540684484    
398.471125228    395.339331746    391.982060453    388.237746259    383.927640978    
398.545493389    395.56568231    392.370194733    388.804192111    384.695873444    
398.655260486    395.899871136    392.943586536    389.641796018    385.833404047    
398.798213186    396.335253609    393.691169501    390.735169734    387.320860644    
398.971308853    396.86265616    394.597524735    392.062540648    389.130163251    
399.170646522    397.470265392    395.642610297    393.595168984    391.223362618    
399.391481974    398.143655257    396.801740166    395.297156114    393.552052757    
399.628305453    398.866013557    398.045935718    397.125866211    396.057747465    
399.874990578    399.618597369    399.342713448    399.033087848    398.673467361    
398.551821724    395.585031773    392.403688469    388.853804689    384.764596979    
398.586517303    395.690622547    392.584712903    389.117905683    385.122605927    
398.655260488    395.899871143    392.943586546    389.641796032    385.833404073    
398.756728395    396.208821355    393.473774965    390.416518056    386.885974685    
398.888878215    396.611341251    394.165068647    391.427883324    388.262476154    
399.048900399    397.098960496    395.00323278    392.655797357    389.937008675    
399.233191064    397.660765268    395.969751516    394.073709753    391.87451916    
399.437365297    398.283421153    397.041803728    395.648427242    394.030238602    
399.656328646    398.95138133    398.192585245    397.340497861    396.350018284    
399.884414849    399.647307814    399.392037549    399.105285557    398.771797737    
398.705791397    396.053917791    393.20862229    390.030650529    386.364830198    
398.736791149    396.148270451    393.370413753    390.266768351    386.685050541    
398.79821319    396.335253615    393.691169509    390.735169752    387.320860668    
398.888878216    396.611341252    394.165068648    391.427883331    388.262476159    
399.006964278    396.97106518    394.783010068    392.332270042    389.49402557    
399.149964166    397.406867121    395.532293953    393.430408998    390.992428154    
399.31465996    397.909001994    396.396387284    394.698594271    392.726392246    
399.497134239    398.465556038    397.354897041    396.107157405    394.655891605    
399.692833591    399.062631566    398.383855286    397.62080463    396.732452832    
399.896691755    399.6847236    399.456370781    399.199577908    398.900467897    
398.892217733    396.621873104    394.184441003    391.459227233    388.311066772    
398.918745712    396.702623885    394.322939043    391.661419899    388.585409651    
398.971308855    396.862656162    394.59752474    392.062540664    389.130163268    
399.0489004    397.098960496    395.003232784    392.655797365    389.937008679    
399.149964166    397.406867122    395.532293956    393.430409002    390.992428154    
399.2723574    397.779916954    396.173857496    394.371070249    392.27672611    
399.41332826    398.209776301    396.91378494    395.457509954    393.763150833    
399.569524786    398.686250239    397.734622514    396.664329643    395.417426817    
399.737048931    399.197439553    398.61584245    397.961286493    397.197988708    
399.911561999    399.730063283    399.534401125    399.31411649    399.057105084    
399.106896205    397.276165174    395.309543427    393.108558083    390.562397642    
399.128278369    397.341258851    395.421211004    393.271634518    390.783767813    
399.170646522    397.470265394    395.642610304    393.595168997    391.223362628    
399.233191065    397.66076527    395.969751521    394.073709758    391.874519168    
399.314659961    397.909001996    396.396387289    394.698594276    392.726392251    
399.413328261    398.209776303    396.913784944    395.457509957    393.763150838    
399.526979374    398.55637543    397.510556109    396.3341298    394.963253412    
399.652911836    398.940582248    398.172630769    397.307974687    396.299055741    
399.787982587    399.352800848    398.883449738    398.354637034    397.736989795    
399.928692023    399.782316704    399.624414868    399.446444822    399.238469859    
399.344715967    398.001254307    396.557341922    394.939987651    393.066713849    
399.36040129    398.049009303    396.639279903    395.05968134    393.229257592    
399.391481975    398.14365526    396.801740174    395.297156123    393.552052768    
399.437365298    398.283421156    397.041803733    395.64842725    394.030238605    
399.49713424    398.465556042    397.354897047    396.107157411    394.655891609    
399.569524788    398.686250243    397.734622519    396.66432965    395.417426819    
399.652911837    398.94058225    398.172630773    397.30797469    396.299055744    
399.745313855    399.222524365    398.658599327    398.023065131    397.280488743    
399.844424471    399.525034255    399.180372455    398.791676669    398.337060077    
399.947674895    399.840245907    399.724291685    399.593475504    399.440392688    
399.599744003    398.779039197    397.896644352    396.907643098    395.761127079    
399.609323418    398.808206224    397.946695687    396.98077227    395.860464921    
399.628305454    398.86601356    398.045935723    397.125866217    396.05774747    
399.656328647    398.951381332    398.192585249    397.340497866    396.350018291    
399.692833592    399.062631569    398.383855291    397.620804638    396.732452835    
399.737048932    399.197439556    398.615842457    397.961286498    397.197988713    
399.787982588    399.35280085    398.883449743    398.35463704    397.736989799    
399.844424472    399.525034257    399.180372457    398.791676671    398.337060077    
399.904965706    399.709837481    399.499183054    399.261449809    398.983117129    
399.968036759    399.902403806    399.83153306    399.751522662    399.65779814    
399.865385439    399.589347116    399.29250188    398.959684162    398.573677634    
399.868606953    399.599156187    399.309335653    398.984282367    398.60709664    
399.874990578    399.61859737    399.34271345    399.033087851    398.673467366    
399.884414849    399.647307815    399.392037551    399.105285562    398.771797739    
399.896691755    399.684723601    399.456370784    399.199577911    398.9004679    
399.911561999    399.730063285    399.534401128    399.314116494    399.057105086    
399.928692024    399.782316706    399.62441487    399.446444825    399.238469861    
399.947674896    399.840245908    399.724291686    399.593475505    399.440392689    
399.968036759    399.902403806    399.83153306    399.751522663    399.65779814    
399.989249661    399.967173436    399.94333021    399.916402121    399.884841433    

-0.475    -0.425    -0.375    -0.325    -0.275    
-0.475    -0.425    -0.375    -0.325    -0.275    
-0.475    -0.425    -0.375    -0.325    -0.275    
-0.475    -0.425    -0.375    -0.325    -0.275    
-0.475    -0.425    -0.375    -0.325    -0.275    
-0.475    -0.425    -0.375    -0.325    -0.275    
-0.475    -0.425    -0.375    -0.325    -0.275    
-0.475    -0.425    -0.375    -0.325    -0.275    
-0.475    -0.425    -0.375    -0.325    -0.275    
-0.475    -0.425    -0.375    -0.325    -0.275    
-0.475    -0.425    -0.375    -0.325    -0.275    
-0.475    -0.425    -0.375    -0.325    -0.275    
-0.475    -0.425    -0.375    -0.325    -0.275    
-0.475    -0.425    -0.375    -0.325    -0.275    
-0.475    -0.425    -0.375    -0.325    -0.275    
-0.475    -0.425    -0.375    -0.325    -0.275    
-0.475    -0.425    -0.375    -0.325    -0.275    
-0.475    -0.425    -0.375    -0.325    -0.275    
-0.475    -0.425    -0.375    -0.325    -0.275    
-0.475    -0.425    -0.375    -0.325    -0.275    
-0.475    -0.425    -0.375    -0.325    -0.275    
-0.475    -0.425    -0.375    -0.325    -0.275    
-0.475    -0.425    -0.375    -0.325    -0.275    
-0.475    -0.425    -0.375    -0.325    -0.275    
-0.475    -0.425    -0.375    -0.325    -0.275    
-0.475    -0.425    -0.375    -0.325    -0.275    
-0.475    -0.425    -0.375    -0.325    -0.275    
-0.475    -0.425    -0.375    -0.325    -0.275    
-0.475    -0.425    -0.375    -0.325    -0.275    
-0.475    -0.425    -0.375    -0.325    -0.275    
-0.475    -0.425    -0.375    -0.325    -0.275    
-0.475    -0.425    -0.375    -0.325    -0.275    
-0.475    -0.425    -0.375    -0.325    -0.275    
-0.475    -0.425    -0.375    -0.325    -0.275    
-0.475    -0.425    -0.375    -0.325    -0.275    
-0.475    -0.425    -0.375    -0.325    -0.275    
-0.475    -0.425    -0.375    -0.325    -0.275    
-0.475    -0.425    -0.375    -0.325    -0.275    
-0.475    -0.425    -0.375    -0.325    -0.275    
-0.475    -0.425    -0.375    -0.325    -0.275    
-0.475    -0.425    -0.375    -0.325    -0.275    
-0.475    -0.425    -0.375    -0.325    -0.275    
-0.475    -0.425    -0.375    -0.325    -0.275    
-0.475    -0.425    -0.375    -0.325    -0.275    
-0.475    -0.425    -0.375    -0.325    -0.275    
-0.475    -0.425    -0.375    -0.325    -0.275    
-0.475    -0.425    -0.375    -0.325    -0.275    