Title = " tecplot file for 2D Cavity problem " 
variables = "x", "y", "z", "velX", "cellCentroidY" 
Zone T = "nmesh0" N = 812 E = 500 DATAPACKING = BLOCK, VARLOCATION = ([4-5]=CELLCENTERED),  ZONETYPE=FEBRICK 
0.3    0.3    0.3    0.3    0.3    
0.3    0.3    0.3    0.3    0.3    
0.3    0.3    0.3    0.3    0.3    
0.3    0.3    0.3    0.3    0.3    
0.3    0.3    0.25    0.25    0.25    
0.25    0.25    0.25    0.25    0.25    
0.25    0.25    0.25    0.25    0.25    
0.25    0.25    0.25    0.25    0.25    
0.25    0.25    0.25    0.25    0.25    
0.25    0.25    0.25    0.25    0.25    
0.25    0.25    0.25    0.25    0.25    
0.25    0.25    0.25    0.25    0.25    
0.25    0.25    0.25    0.25    0.25    
0.25    0.25    0.25    0.25    0.25    
0.25    0.25    0.25    0.25    0.25    
0.25    0.25    0.25    0.25    0.25    
0.25    0.25    0.25    0.25    0.25    
0.25    0.25    0.25    0.25    0.25    
0.25    0.25    0.25    0.25    0.25    
0.25    0.25    0.25    0.25    0.25    
0.25    0.25    0.25    0.25    0.25    
0.25    0.25    0.25    0.25    0.25    
0.25    0.25    0.25    0.25    0.2    
0.2    0.2    0.2    0.2    0.2    
0.2    0.2    0.2    0.2    0.2    
0.2    0.2    0.2    0.2    0.2    
0.2    0.2    0.2    0.2    0.2    
0.2    0.2    0.2    0.2    0.2    
0.2    0.2    0.2    0.2    0.2    
0.2    0.2    0.2    0.2    0.2    
0.2    0.2    0.2    0.2    0.2    
0.2    0.2    0.2    0.2    0.2    
0.2    0.2    0.2    0.2    0.2    
0.2    0.2    0.2    0.2    0.2    
0.2    0.2    0.2    0.2    0.2    
0.2    0.2    0.2    0.2    0.2    
0.2    0.2    0.2    0.2    0.2    
0.2    0.2    0.2    0.2    0.2    
0.2    0.2    0.2    0.2    0.2    
0.2    0.2    0.2    0.2    0.2    
0.2    0.2    0.2    0.2    0.2    
0.2    0.2    0.2    0.2    0.2    
0.2    0.2    0.2    0.2    0.2    
0.15    0.15    0.15    0.15    0.15    
0.15    0.15    0.15    0.15    0.15    
0.15    0.15    0.15    0.15    0.15    
0.15    0.15    0.15    0.15    0.15    
0.15    0.15    0.15    0.15    0.15    
0.15    0.15    0.15    0.15    0.15    
0.15    0.15    0.15    0.15    0.15    
0.15    0.15    0.15    0.15    0.15    
0.15    0.15    0.15    0.15    0.15    
0.15    0.15    0.15    0.15    0.15    
0.15    0.15    0.15    0.15    0.15    
0.15    0.15    0.15    0.15    0.15    
0.15    0.15    0.15    0.15    0.15    
0.15    0.15    0.15    0.15    0.15    
0.15    0.15    0.15    0.15    0.15    
0.15    0.15    0.15    0.15    0.15    
0.15    0.15    0.15    0.15    0.15    
0.15    0.15    0.15    0.15    0.15    
0.15    0.15    0.15    0.15    0.15    
0.15    0.15    0.15    0.15    0.15    
0.15    0.15    0.15    0.15    0.15    
0.15    0.15    0.15    0.1    0.1    
0.1    0.1    0.1    0.1    0.1    
0.1    0.1    0.1    0.1    0.1    
0.1    0.1    0.1    0.1    0.1    
0.1    0.1    0.1    0.1    0.1    
0.1    0.1    0.1    0.1    0.1    
0.1    0.1    0.1    0.1    0.1    
0.1    0.1    0.1    0.1    0.1    
0.1    0.1    0.1    0.1    0.1    
0.1    0.1    0.1    0.1    0.1    
0.1    0.1    0.1    0.1    0.1    
0.1    0.1    0.1    0.1    0.1    
0.1    0.1    0.1    0.1    0.1    
0.1    0.1    0.1    0.1    0.1    
0.1    0.1    0.1    0.1    0.1    
0.1    0.1    0.1    0.1    0.1    
0.1    0.1    0.1    0.1    0.1    
0.1    0.1    0.1    0.1    0.1    
0.1    0.1    0.1    0.1    0.1    
0.1    0.1    0.1    0.1    0.1    
0.1    0.1    0.1    0.1    0.1    
0.1    0.1    0.1    0.1    0.1    
0.1    0.1    0.1    0.05    0.05    
0.05    0.05    0.05    0.05    0.05    
0.05    0.05    0.05    0.05    0.05    
0.05    0.05    0.05    0.05    0.05    
0.05    0.05    0.05    0.05    0.05    
0.05    0.05    0.05    0.05    0.05    
0.05    0.05    0.05    0.05    0.05    
0.05    0.05    0.05    0.05    0.05    
0.05    0.05    0.05    0.05    0.05    
0.05    0.05    0.05    0.05    0.05    
0.05    0.05    0.05    0.05    0.05    
0.05    0.05    0.05    0.05    0.05    
0.05    0.05    0.05    0.05    0.05    
0.05    0.05    0.05    0.05    0.05    
0.05    0.05    0.05    0.05    0.05    
0.05    0.05    0.05    0.05    0.05    
0.05    0.05    0.05    0.05    0.05    
0.05    0.05    0.05    0.05    0.05    
0.05    0.05    0.05    0.05    0.05    
0.05    0.05    0.05    0.05    0.05    
0.05    0.05    0.05    0.05    0.05    
0.05    0.05    0.05    0.05    0.05    
0.05    0.05    0.05    0.05    0.05    
0.05    0.05    0.0    0.0    0.0    
0.0    0.0    0.0    -2.7755575616e-17    -2.7755575616e-17    
0.0    0.0    0.0    0.0    0.0    
0.0    0.0    0.0    0.0    0.0    
-2.7755575616e-17    -2.7755575616e-17    0.0    0.0    0.0    
0.0    0.0    0.0    0.0    0.0    
0.0    0.0    -2.7755575616e-17    -2.7755575616e-17    0.0    
0.0    0.0    0.0    -2.7755575616e-17    -2.7755575616e-17    
-2.7755575616e-17    0.0    0.0    -2.7755575616e-17    -2.7755575616e-17    
0.0    0.0    0.0    0.0    0.0    
0.0    0.0    0.0    -2.7755575616e-17    -2.7755575616e-17    
0.0    0.0    0.0    0.0    0.0    
0.0    0.0    0.0    0.0    -2.7755575616e-17    
-2.7755575616e-17    0.0    0.0    -2.4651903288e-32    0.0    
0.0    0.0    0.0    0.0    -2.7755575616e-17    
-2.7755575616e-17    0.0    0.0    0.0    0.0    
0.0    0.0    0.0    0.0    -2.7755575616e-17    
-2.7755575616e-17    0.0    0.0    0.0    0.0    
0.0    0.0    0.0    -2.7755575616e-17    -2.7755575616e-17    
0.0    0.0    0.0    0.0    0.0    
-2.7755575616e-17    -2.7755575616e-17    0.0    -0.05    -0.05    
-0.05    -0.05    -0.05    -0.05    -0.05    
-0.05    -0.05    -0.05    -0.05    -0.05    
-0.05    -0.05    -0.05    -0.05    -0.05    
-0.05    -0.05    -0.05    -0.05    -0.05    
-0.05    -0.05    -0.05    -0.05    -0.05    
-0.05    -0.05    -0.05    -0.05    -0.05    
-0.05    -0.05    -0.05    -0.05    -0.05    
-0.05    -0.05    -0.05    -0.05    -0.05    
-0.05    -0.05    -0.05    -0.05    -0.05    
-0.05    -0.05    -0.05    -0.05    -0.05    
-0.05    -0.05    -0.05    -0.05    -0.05    
-0.05    -0.05    -0.05    -0.05    -0.05    
-0.05    -0.05    -0.05    -0.05    -0.05    
-0.05    -0.05    -0.05    -0.05    -0.05    
-0.05    -0.05    -0.05    -0.05    -0.05    
-0.05    -0.1    -0.1    -0.1    -0.1    
-0.1    -0.1    -0.1    -0.1    -0.1    
-0.1    -0.1    -0.1    -0.1    -0.1    
-0.1    -0.1    -0.1    -0.1    -0.1    
-0.1    -0.1    -0.1    -0.1    -0.1    
-0.1    -0.1    -0.1    -0.1    -0.1    
-0.1    -0.1    -0.1    -0.1    -0.1    
-0.1    -0.1    -0.1    -0.1    -0.1    
-0.1    -0.1    -0.1    -0.1    -0.1    
-0.1    -0.1    -0.1    -0.1    -0.1    
-0.1    -0.1    -0.1    -0.1    -0.1    
-0.1    -0.1    -0.1    -0.1    -0.1    
-0.1    -0.15    -0.15    -0.15    -0.15    
-0.15    -0.15    -0.15    -0.15    -0.15    
-0.15    -0.15    -0.15    -0.15    -0.15    
-0.15    -0.15    -0.15    -0.15    -0.15    
-0.15    -0.15    -0.15    -0.15    -0.15    
-0.15    -0.15    
-0.5    -0.45    -0.45    -0.5    -0.4    
-0.4    -0.35    -0.35    -0.5    -0.45    
-0.4    -0.35    -0.5    -0.45    -0.4    
-0.35    -0.5    -0.45    -0.4    -0.5    
-0.45    -0.4    -0.5    -0.45    -0.45    
-0.5    -0.4    -0.4    -0.5    -0.45    
-0.4    -0.25    -0.2    -0.2    -0.25    
-0.15    -0.15    -0.1    -0.1    -0.5    
-0.45    -0.4    -0.35    -0.35    -0.3    
-0.3    -0.25    -0.2    -0.15    -0.1    
-0.5    -0.45    -0.4    -0.35    -0.3    
-0.25    -0.2    -0.15    -0.1    -0.5    
-0.45    -0.4    -0.35    -0.3    -0.25    
-0.2    -0.15    -0.5    -0.45    -0.4    
-0.35    -0.3    -0.25    -0.2    -0.15    
-0.45    -0.5    -0.4    -0.35    -0.3    
-0.25    -0.2    -0.15    -0.45    -0.5    
-0.4    -0.35    -0.3    -0.25    -0.45    
-0.5    -0.4    -0.35    -0.3    -0.25    
-0.45    -0.5    -0.4    -0.35    -0.3    
-0.45    -0.5    -0.4    -0.35    -0.3    
-0.45    -0.5    -0.4    -0.35    -0.3    
-0.25    -0.25    -0.2    -0.2    -0.45    
-0.5    -0.4    -0.45    -0.5    -0.4    
-0.2    -0.25    -0.15    -0.1    -0.45    
-0.5    -0.4    -0.35    -0.3    -0.25    
-0.2    -0.15    -0.1    -0.45    -0.5    
-0.4    -0.35    -0.3    -0.25    -0.2    
-0.15    -0.1    -0.05    -0.05    -0.45    
-0.5    -0.4    -0.35    -0.3    -0.25    
-0.2    -0.15    -0.1    -0.05    -0.45    
-0.5    -0.4    -0.35    -0.3    -0.25    
-0.2    -0.15    -0.1    -0.45    -0.5    
-0.4    -0.35    -0.3    -0.25    -0.2    
-0.15    -0.1    -0.45    -0.5    -0.4    
-0.35    -0.3    -0.25    -0.2    -0.15    
-0.1    -0.05    -0.05    -0.45    -0.5    
-0.4    -0.35    -0.3    -0.25    -0.45    
-0.5    -0.4    -0.35    -0.3    -0.25    
-0.45    -0.5    -0.4    -0.35    -0.3    
-0.25    -0.45    -0.5    -0.4    -0.35    
-0.3    -0.25    -0.2    -0.45    -0.5    
-0.4    -0.35    -0.3    -0.25    -0.2    
-0.45    -0.5    -0.45    -0.5    -0.4    
-0.35    -0.3    -0.25    -0.2    -0.15    
-0.1    -0.05    -0.45    -0.5    -0.4    
-0.35    -0.3    -0.25    -0.2    -0.15    
-0.1    -0.05    -0.45    -0.5    -0.4    
-0.35    -0.3    -0.25    -0.2    -0.15    
-0.1    -0.05    -0.45    -0.5    -0.4    
-0.35    -0.3    -0.25    -0.2    -0.15    
-0.1    -0.05    -0.45    -0.5    -0.4    
-0.35    -0.3    -0.25    -0.2    -0.15    
-0.1    -0.05    -0.45    -0.5    -0.4    
-0.35    -0.3    -0.25    -0.2    -0.15    
-0.1    -0.05    -0.45    -0.5    -0.4    
-0.35    -0.3    -0.25    -0.2    -0.15    
-0.1    -0.05    -0.45    -0.5    -0.4    
-0.35    -0.3    -0.25    -0.2    -0.15    
-0.1    -0.45    -0.5    -0.4    -0.35    
-0.3    -0.25    -0.2    -0.15    -0.1    
-0.45    -0.5    -0.4    -0.35    -0.3    
-0.25    -0.2    -0.15    -0.1    -0.45    
-0.5    -0.4    -0.35    -0.3    -0.25    
-0.2    -0.15    -0.1    -0.45    -0.5    
-0.4    -0.35    -0.3    -0.25    -0.2    
-0.15    -0.1    -0.05    -0.45    -0.5    
-0.4    -0.35    -0.3    -0.25    -0.2    
-0.15    -0.1    -0.05    -0.45    -0.5    
-0.4    -0.35    -0.3    -0.25    -0.2    
-0.15    -0.1    -0.05    -0.45    -0.5    
-0.4    -0.35    -0.3    -0.25    -0.2    
-0.15    -0.1    -0.05    0.0    0.0    
-0.45    -0.5    -0.4    -0.35    -0.3    
-0.25    -0.2    -0.15    -0.1    -0.05    
-5.5511151231e-18    -0.45    -0.5    -0.4    -0.35    
-0.3    -0.25    -0.2    -0.15    -0.1    
-0.05    0.0    -0.45    -0.5    -0.4    
-0.35    -0.3    -0.25    -0.2    -0.15    
-0.1    -0.05    -0.45    -0.5    -0.4    
-0.35    -0.3    -0.25    -0.2    -0.15    
-0.1    -0.45    -0.5    -0.4    -0.35    
-0.3    -0.25    -0.2    -0.15    -0.1    
-0.45    -0.5    -0.4    -0.35    -0.3    
-0.25    -0.2    -0.15    -0.1    -0.45    
-0.5    -0.4    -0.35    -0.3    -0.25    
-0.2    -0.15    -0.1    -0.45    -0.5    
-0.4    -0.2    -0.25    -0.15    -0.1    
-0.05    -0.45    -0.5    -0.4    -0.35    
-0.3    -0.25    -0.2    -0.15    -0.1    
-0.05    -0.45    -0.5    -0.4    -0.35    
-0.3    -0.25    -0.2    -0.15    -0.1    
-0.05    0.0    0.0    0.05    0.05    
-0.45    -0.5    -0.4    -0.35    -0.3    
-0.25    -0.2    -0.15    -0.1    -0.05    
0.0    0.05    -0.45    -0.5    -0.4    
-0.35    -0.3    -0.25    -0.2    -0.15    
-0.1    -0.05    -2.7755575616e-18    0.05    -0.45    
-0.5    -0.4    -0.35    -0.3    -0.25    
-0.2    -0.15    -0.1    -0.05    0.0    
-0.45    -0.5    -0.4    -0.35    -0.3    
-0.25    -0.2    -0.15    -0.1    -0.05    
-0.45    -0.5    -0.4    -0.35    -0.3    
-0.25    -0.2    -0.15    -0.1    -0.05    
-0.45    -0.5    -0.4    -0.35    -0.3    
-0.25    -0.2    -0.15    -0.1    -0.45    
-0.5    -0.4    -0.35    -0.3    -0.25    
-0.2    -0.15    -0.1    -0.45    -0.5    
-0.4    -0.35    -0.3    -0.25    -0.2    
-0.15    -0.1    -0.45    -0.5    -0.4    
-0.35    -0.3    -0.25    -0.2    -0.15    
-0.1    -0.05    0.0    0.05    -0.45    
-0.5    -0.4    -0.35    -0.3    -0.25    
-0.2    -0.15    -0.1    -0.05    0.0    
0.05    -0.45    -0.5    -0.4    -0.35    
-0.3    -0.25    -0.2    -0.15    -0.1    
-0.05    0.0    0.05    -0.45    -0.4    
-0.35    -0.3    -0.25    -0.2    -0.15    
-0.1    -0.05    1.2325951644e-32    0.05    -0.4    
-0.35    -0.3    -0.25    -0.2    -0.15    
-0.1    -0.05    0.0    -0.45    -0.5    
-0.4    -0.35    -0.3    -0.25    -0.2    
-0.15    -0.1    -0.05    -0.45    -0.5    
-0.4    -0.35    -0.3    -0.25    -0.2    
-0.15    -0.1    -0.05    -0.45    -0.5    
-0.4    -0.35    -0.3    -0.25    -0.2    
-0.15    -0.1    -0.45    -0.5    -0.4    
-0.35    -0.3    -0.25    -0.2    -0.15    
-0.1    -0.4    -0.35    -0.3    -0.25    
-0.2    -0.15    -0.1    -0.45    -0.5    
-0.4    -0.35    -0.3    -0.25    -0.2    
0.0    -0.05    0.05    -0.45    -0.5    
-0.4    -0.35    -0.3    -0.25    -0.2    
-0.15    -0.1    -0.05    0.0    0.05    
-0.25    -0.3    -0.2    -0.15    -0.1    
-0.05    0.0    0.05    0.1    0.1    
-0.3    -0.25    -0.2    -0.15    -0.1    
-0.05    2.7755575616e-18    0.05    0.1    -0.3    
-0.25    -0.2    -0.15    -0.1    -0.05    
-0.3    -0.25    -0.2    -0.15    -0.1    
-0.05    -0.3    -0.25    -0.2    -0.15    
-0.1    -0.05    -0.3    -0.25    -0.2    
-0.15    -0.1    -0.35    -0.4    -0.3    
-0.25    -0.2    -0.15    -0.1    -0.4    
-0.35    -0.3    -0.25    -0.2    -0.15    
-0.1    0.0    -0.05    0.05    -0.2    
-0.25    -0.15    -0.1    -0.05    0.0    
0.05    0.1    -0.25    -0.3    -0.2    
-0.15    -0.1    -0.05    0.0    0.05    
0.1    -0.3    -0.25    -0.2    -0.15    
-0.1    -0.05    5.5511151231e-18    0.05    0.1    
-0.3    -0.25    -0.2    -0.15    -0.1    
-0.05    -0.3    -0.25    -0.2    -0.15    
-0.1    -0.05    -0.25    -0.2    -0.15    
-0.25    -0.2    -0.35    -0.4    -0.3    
-0.25    -0.2    -0.15    -0.1    -0.4    
-0.35    -0.3    -0.25    -0.2    -0.15    
-0.1    0.0    -0.05    0.05    -0.1    
-0.15    -0.05    0.0    0.05    0.1    
-0.15    -0.1    -0.05    0.0    0.05    
0.1    -0.2    -0.25    -0.15    -0.1    
-0.05    8.3266726847e-18    0.05    0.1    -0.25    
-0.2    -0.15    
-0.3    -0.3    -0.25    -0.25    -0.3    
-0.25    -0.3    -0.25    -0.35    -0.35    
-0.35    -0.35    -0.4    -0.4    -0.4    
-0.4    -0.45    -0.45    -0.45    -0.5    
-0.5    -0.5    0.05    0.05    0.1    
0.1    0.05    0.1    0.0    0.0    
0.0    0.0    0.0    0.05    0.05    
2.4651903288e-32    0.05    0.0    0.05    -0.05    
-0.05    -0.05    -0.05    0.0    -0.05    
-2.4651903288e-32    -0.05    -0.05    -0.05    -0.05    
-0.1    -0.1    -0.1    -0.1    -0.1    
-0.1    -0.1    -0.1    -0.1    -0.15    
-0.15    -0.15    -0.15    -0.15    -0.15    
-0.15    -0.15    -0.2    -0.2    -0.2    
-0.2    -0.2    -0.2    -0.2    -0.2    
-0.25    -0.25    -0.25    -0.25    -0.25    
-0.25    -0.25    -0.25    -0.3    -0.3    
-0.3    -0.3    -0.3    -0.3    -0.35    
-0.35    -0.35    -0.35    -0.35    -0.35    
-0.4    -0.4    -0.4    -0.4    -0.4    
-0.45    -0.45    -0.45    -0.45    -0.45    
-0.5    -0.5    -0.5    -0.5    -0.5    
-0.5    -0.45    -0.5    -0.45    0.1    
0.1    0.1    0.05    0.05    0.05    
0.05    0.05    0.05    0.05    0.0    
0.0    0.0    0.0    0.0    0.0    
0.0    0.0    0.0    -0.05    -0.05    
-0.05    -0.05    -0.05    -0.05    -0.05    
-0.05    -0.05    -0.05    0.0    -0.1    
-0.1    -0.1    -0.1    -0.1    -0.1    
-0.1    -0.1    -0.1    -0.1    -0.15    
-0.15    -0.15    -0.15    -0.15    -0.15    
-0.15    -0.15    -0.15    -0.2    -0.2    
-0.2    -0.2    -0.2    -0.2    -0.2    
-0.2    -0.2    -0.25    -0.25    -0.25    
-0.25    -0.25    -0.25    -0.25    -0.25    
-0.25    -0.25    -0.2    -0.3    -0.3    
-0.3    -0.3    -0.3    -0.3    -0.35    
-0.35    -0.35    -0.35    -0.35    -0.35    
-0.4    -0.4    -0.4    -0.4    -0.4    
-0.4    -0.45    -0.45    -0.45    -0.45    
-0.45    -0.45    -0.45    -0.5    -0.5    
-0.5    -0.5    -0.5    -0.5    -0.5    
0.05    0.05    0.0    0.0    0.0    
0.0    0.0    0.0    0.0    0.0    
0.0    0.0    -0.05    -0.05    -0.05    
-0.05    -0.05    -0.05    -0.05    -0.05    
-0.05    -0.05    -0.1    -0.1    -0.1    
-0.1    -0.1    -0.1    -0.1    -0.1    
-0.1    -0.1    -0.15    -0.15    -0.15    
-0.15    -0.15    -0.15    -0.15    -0.15    
-0.15    -0.15    -0.2    -0.2    -0.2    
-0.2    -0.2    -0.2    -0.2    -0.2    
-0.2    -0.2    -0.25    -0.25    -0.25    
-0.25    -0.25    -0.25    -0.25    -0.25    
-0.25    -0.25    -0.3    -0.3    -0.3    
-0.3    -0.3    -0.3    -0.3    -0.3    
-0.3    -0.3    -0.35    -0.35    -0.35    
-0.35    -0.35    -0.35    -0.35    -0.35    
-0.35    -0.4    -0.4    -0.4    -0.4    
-0.4    -0.4    -0.4    -0.4    -0.4    
-0.45    -0.45    -0.45    -0.45    -0.45    
-0.45    -0.45    -0.45    -0.45    -0.5    
-0.5    -0.5    -0.5    -0.5    -0.5    
-0.5    -0.5    -0.5    0.0    0.0    
0.0    0.0    0.0    0.0    0.0    
0.0    0.0    0.0    -0.05    -0.05    
-0.05    -0.05    -0.05    -0.05    -0.05    
-0.05    -0.05    -0.05    -0.1    -0.1    
-0.1    -0.1    -0.1    -0.1    -0.1    
-0.1    -0.1    -0.1    -0.15    -0.15    
-0.15    -0.15    -0.15    -0.15    -0.15    
-0.15    -0.15    -0.15    -0.15    -0.1    
-0.2    -0.2    -0.2    -0.2    -0.2    
-0.2    -0.2    -0.2    -0.2    -0.2    
-0.2    -0.25    -0.25    -0.25    -0.25    
-0.25    -0.25    -0.25    -0.25    -0.25    
-0.25    -0.25    -0.3    -0.3    -0.3    
-0.3    -0.3    -0.3    -0.3    -0.3    
-0.3    -0.3    -0.35    -0.35    -0.35    
-0.35    -0.35    -0.35    -0.35    -0.35    
-0.35    -0.4    -0.4    -0.4    -0.4    
-0.4    -0.4    -0.4    -0.4    -0.4    
-0.45    -0.45    -0.45    -0.45    -0.45    
-0.45    -0.45    -0.45    -0.45    -0.5    
-0.5    -0.5    -0.5    -0.5    -0.5    
-0.5    -0.5    -0.5    0.0    0.0    
0.0    0.0    0.0    0.0    0.0    
0.0    -0.05    -0.05    -0.05    -0.05    
-0.05    -0.05    -0.05    -0.05    -0.05    
-0.05    -0.1    -0.1    -0.1    -0.1    
-0.1    -0.1    -0.1    -0.1    -0.1    
-0.1    -0.1    -0.05    -0.1    -0.05    
-0.15    -0.15    -0.15    -0.15    -0.15    
-0.15    -0.15    -0.15    -0.15    -0.15    
-0.15    -0.15    -0.2    -0.2    -0.2    
-0.2    -0.2    -0.2    -0.2    -0.2    
-0.2    -0.2    -0.2    -0.2    -0.25    
-0.25    -0.25    -0.25    -0.25    -0.25    
-0.25    -0.25    -0.25    -0.25    -0.25    
-0.3    -0.3    -0.3    -0.3    -0.3    
-0.3    -0.3    -0.3    -0.3    -0.3    
-0.35    -0.35    -0.35    -0.35    -0.35    
-0.35    -0.35    -0.35    -0.35    -0.35    
-0.4    -0.4    -0.4    -0.4    -0.4    
-0.4    -0.4    -0.4    -0.4    -0.45    
-0.45    -0.45    -0.45    -0.45    -0.45    
-0.45    -0.45    -0.45    -0.5    -0.5    
-0.5    -0.5    -0.5    -0.5    -0.5    
-0.5    -0.5    -0.05    -0.05    -0.05    
-0.05    -0.05    -0.05    -0.05    -0.05    
-0.05    -0.05    -0.05    -0.05    -0.1    
-0.1    -0.1    -0.1    -0.1    -0.1    
-0.1    -0.1    -0.1    -0.1    -0.1    
-0.1    -0.15    -0.15    -0.15    -0.15    
-0.15    -0.15    -0.15    -0.15    -0.15    
-0.15    -0.15    -0.15    -0.2    -0.2    
-0.2    -0.2    -0.2    -0.2    -0.2    
-0.2    -0.2    -0.2    -0.2    -0.25    
-0.25    -0.25    -0.25    -0.25    -0.25    
-0.25    -0.25    -0.25    -0.3    -0.3    
-0.3    -0.3    -0.3    -0.3    -0.3    
-0.3    -0.3    -0.3    -0.35    -0.35    
-0.35    -0.35    -0.35    -0.35    -0.35    
-0.35    -0.35    -0.35    -0.4    -0.4    
-0.4    -0.4    -0.4    -0.4    -0.4    
-0.4    -0.4    -0.45    -0.45    -0.45    
-0.45    -0.45    -0.45    -0.45    -0.45    
-0.45    -0.5    -0.5    -0.5    -0.5    
-0.5    -0.5    -0.5    -0.05    -0.05    
-0.05    -0.05    -0.05    -0.05    -0.05    
-0.05    -0.05    -0.05    -0.1    -0.1    
-0.1    -0.1    -0.1    -0.1    -0.1    
-0.1    -0.1    -0.1    -0.1    -0.1    
-0.15    -0.15    -0.15    -0.15    -0.15    
-0.15    -0.15    -0.15    -0.15    -0.1    
-0.2    -0.2    -0.2    -0.2    -0.2    
-0.2    -0.2    -0.2    -0.2    -0.25    
-0.25    -0.25    -0.25    -0.25    -0.25    
-0.3    -0.3    -0.3    -0.3    -0.3    
-0.3    -0.35    -0.35    -0.35    -0.35    
-0.35    -0.35    -0.4    -0.4    -0.4    
-0.4    -0.4    -0.45    -0.45    -0.45    
-0.45    -0.45    -0.45    -0.45    -0.5    
-0.5    -0.5    -0.5    -0.5    -0.5    
-0.5    -0.05    -0.05    -0.05    -0.1    
-0.1    -0.1    -0.1    -0.1    -0.1    
-0.1    -0.1    -0.15    -0.15    -0.15    
-0.15    -0.15    -0.15    -0.15    -0.15    
-0.15    -0.2    -0.2    -0.2    -0.2    
-0.2    -0.2    -0.2    -0.2    -0.2    
-0.25    -0.25    -0.25    -0.25    -0.25    
-0.25    -0.3    -0.3    -0.3    -0.3    
-0.3    -0.3    -0.35    -0.35    -0.35    
-0.4    -0.4    -0.45    -0.45    -0.45    
-0.45    -0.45    -0.45    -0.45    -0.5    
-0.5    -0.5    -0.5    -0.5    -0.5    
-0.5    -0.05    -0.05    -0.05    -0.1    
-0.1    -0.1    -0.1    -0.1    -0.1    
-0.15    -0.15    -0.15    -0.15    -0.15    
-0.15    -0.2    -0.2    -0.2    -0.2    
-0.2    -0.2    -0.2    -0.2    -0.25    
-0.25    -0.25    
397.779917008    399.272357416    399.413328273    399.149964188    396.173857584    
398.209776339    397.406867191    396.913785001    395.532294073    399.569524795    
399.314659978    398.686250264    397.909002045    397.734622552    396.396387371    
399.737048935    399.497134251    399.197439565    398.465556072    397.354897096    
399.911562    399.692833598    399.730063286    399.062631584    399.896691757    
399.684723605    396.14827059    398.736791188    398.705791446    396.053917937    
398.70579145    398.551821777    396.053917948    376.824744865    382.03278695    
382.032786985    370.490188217    376.824744866    370.490188196    398.736791197    
398.551821779    393.208622559    396.148270594    395.585031946    390.030650912    
393.370413993    392.40368876    386.364830699    390.266768706    388.853805109    
386.685051032    384.764597547    382.449829225    379.941060459    377.354208211    
374.155918324    371.150232312    367.140939644    398.798213229    398.586517358    
396.335253737    395.690622709    393.69116972    392.584713177    390.735170072    
389.117906089    387.320861107    385.12260649    383.278900857    380.407038157    
378.408498106    374.747055793    367.877164417    398.888878249    398.655260536    
396.611341353    395.899871285    394.165068831    392.943586794    391.427883609    
389.641796408    388.262476535    385.833404591    384.509104554    381.33331442    
379.976936086    375.924013281    399.006964305    398.756728436    396.971065264    
396.20882148    394.78301022    393.473775185    392.332270272    390.416518389    
389.494025876    386.885975148    386.122075208    382.707570302    382.040201064    
377.674608736    398.88887825    396.611341354    394.165068834    393.430409173    
391.427883607    390.992428376    388.262476535    384.509104545    379.9769361    
399.048900427    397.098960579    395.003232931    394.698594392    392.655797576    
392.726392401    389.93700895    399.233191085    397.660765331    395.969751627    
396.107157477    394.073709909    391.874519351    399.437365311    398.283421195    
398.383855315    397.041803801    397.620804669    395.648427343    399.656328654    
398.951381354    399.45637079    398.192585286    399.19957792    397.340497917    
399.884414852    399.647307822    399.392037563    398.900467916    399.105285577    
398.542341753    398.771797762    398.373345097    398.433589938    395.225108565    
391.786271043    387.952182278    383.540685066    378.344961411    372.125790988    
358.577794913    364.603632527    359.480849531    355.450979978    398.471125284    
395.339331919    391.982060734    388.237746682    383.927641582    378.848362648    
372.763992453    369.346074451    365.397834908    356.424196453    398.545493443    
395.565682466    392.370195    388.80419252    384.695874028    379.84895939    
374.03452823    371.538183393    366.982198562    398.655260532    395.899871276    
392.94358678    389.641796393    385.833404588    381.333314428    375.924013301    
374.433516089    369.346074482    398.798213226    396.335253726    393.691169707    
390.735170061    387.320861109    383.278900873    378.408498167    367.591744801    
372.467370763    365.159779291    398.971308884    396.862656251    394.597524902    
392.062540912    389.130163609    399.170646544    397.470265461    395.642610424    
393.595169176    394.030238723    391.223362878    399.39148199    398.143655306    
396.801740253    395.297156242    396.350018353    393.552052931    399.628305463    
398.866013586    398.045935768    397.125866284    396.057747566    399.874990581    
399.618597378    399.342713464    399.033087874    398.673467396    398.244541892    
398.353483998    394.981317984    377.268907995    370.760450308    362.902617219    
353.363367968    398.392944329    395.101391772    391.574106635    387.642496927    
383.120574677    377.797582969    371.430382211    363.735825115    358.370844526    
354.383664598    398.471125273    395.339331888    391.982060692    388.237746627    
383.927641529    378.848362602    372.763992408    365.397834861    361.287516536    
356.424196403    398.586517342    395.690622669    392.584713121    389.117906023    
385.122606438    380.407038126    374.747055779    367.877164411    359.480849503    
398.736791182    396.148270551    393.370413941    390.266768657    386.685051004    
385.651797811    382.449829226    381.44955975    377.354208249    376.306124252    
371.150232371    369.951931371    363.537771009    398.918745738    396.702623963    
394.3229392    391.661420153    388.585410031    388.404504126    384.940990219    
384.99036107    380.544889133    380.797638524    375.174691652    368.556757997    
399.128278389    397.341258916    395.42121112    393.271634694    390.783768096    
391.474554415    387.830545308    388.952766158    384.259262115    385.84686878    
379.882333789    399.360401305    398.049009348    396.639279981    395.059681456    
393.229257782    394.784615411    391.052865168    393.236684655    388.415245244    
391.326074896    385.173311221    399.609323426    398.80820625    397.946695732    
396.98077234    395.860465034    394.526788665    397.722581094    392.907866057    
397.077577536    390.913766259    399.868606955    399.599156195    399.309335668    
398.984282392    398.607096679    398.15778426    397.611904586    396.938750689    
398.353483979    394.981317931    391.368314817    387.342403444    382.714042535    
377.268907849    370.760450141    362.902617034    353.363367762    398.433589905    
395.22510847    391.786270903    387.952182095    383.540684857    378.344961212    
372.125790782    364.603632312    345.461005354    355.450979748    349.18065403    
344.285907899    395.58503185    392.403688614    388.853804921    384.764597374    
379.94106032    374.155918199    367.140939515    358.577794723    354.151795056    
348.088993152    393.208622433    390.030650765    386.3648306    382.032786928    
376.824744842    370.490188174    362.72721192    353.170569416    394.184441126    
391.459227431    388.311067126    384.583469825    380.09062285    374.607812436    
367.85973653    399.106896222    397.276165218    395.309543505    390.562397887    
387.541882138    383.892198181    379.423823161    399.344715978    398.001254339    
396.557341972    393.066714017    390.840799614    388.145400762    384.835953912    
399.599744009    398.779039216    397.896644384    396.907643148    395.761127175    
394.397136071    392.742806953    390.707281926    399.29250189    398.959684179    
398.57367767    398.114157998    397.556350001    396.86923048    398.353483956    
394.981317853    391.36831468    387.342403254    382.71404229    377.268907588    
341.76012387    327.659038102    341.760123639    330.668437719    327.659037837    
378.344960958    372.125790545    364.60363209    355.45097952    344.285907694    
335.230040022    330.668437502    384.764597184    379.94106011    374.155917982    
367.140939309    358.577794523    348.088992965    335.230039803    386.364830452    
382.032786765    376.824744674    370.490188    362.727211728    388.311067007    
384.583469693    380.090622717    374.6078123    373.900817638    367.859736386    
390.562397796    387.541882034    383.892198074    379.423823032    373.900817494    
393.06671395    390.840799539    388.145400671    384.835953813    395.761127131    
394.397136023    392.742806898    390.707281858    399.292501885    398.959684169    
398.573677653    398.114157984    397.556349981    396.869230461    342.991033705    
329.120282414    378.848361962    372.763991708    365.397834213    356.424195799    
345.461004843    332.064796413    385.122605962    380.407037533    374.747055143    
367.877163836    359.480848979    349.180653544    336.529039957    386.685050598    
382.44982877    377.354207764    371.150231868    363.537770483    388.585409698    
384.940989848    380.54488875    375.174691241    368.556757571    387.830545023    
384.259261797    391.052864955    394.526788536    399.309335653    398.984282365    
398.607096638    398.157784215    397.611904541    396.938750641    345.461004499    
332.064796079    366.982197629    358.370843658    347.819442117    315.730694118    
334.879319871    321.002126606    319.030223081    369.346073637    361.287515778    
351.372240164    339.148331029    324.078085206    383.278900225    378.408497428    

-0.425    -0.475    -0.475    -0.475    -0.375    
-0.425    -0.425    -0.375    -0.375    -0.475    
-0.475    -0.425    -0.425    -0.375    -0.375    
-0.475    -0.475    -0.425    -0.425    -0.375    
-0.475    -0.475    -0.425    -0.425    -0.475    
-0.425    -0.425    -0.475    -0.475    -0.425    
-0.475    -0.475    -0.425    -0.175    -0.225    
-0.225    -0.125    -0.175    -0.125    -0.475    