Title = " tecplot file for 2D Cavity problem " 
variables = "x", "y", "z", "velX", "cellCentroidY" 
Zone T = "nmesh0" N = 739 E = 500 DATAPACKING = BLOCK, VARLOCATION = ([4-5]=CELLCENTERED), ZONETYPE=FEBRICK
0.45    0.45    0.5    0.5    0.45    
0.45    0.5    0.5    0.45    0.45    
0.5    0.5    0.45    0.45    0.5    
0.5    0.45    0.45    0.5    0.5    
0.45    0.45    0.5    0.5    0.45    
0.45    0.5    0.5    0.45    0.5    
0.45    0.5    0.45    0.5    0.45    
0.5    0.45    0.5    0.45    0.5    
0.45    0.5    0.45    0.5    0.45    
0.5    0.45    0.5    0.45    0.5    
0.45    0.5    0.45    0.5    0.45    
0.5    0.45    0.5    0.45    0.5    
0.45    0.5    0.45    0.5    0.45    
0.5    0.45    0.5    0.45    0.5    
0.45    0.5    0.45    0.5    0.45    
0.5    0.45    0.5    0.45    0.5    
0.45    0.5    0.45    0.5    0.45    
0.5    0.45    0.5    0.45    0.5    
0.45    0.5    0.45    0.5    0.45    
0.5    0.45    0.5    0.45    0.5    
0.45    0.5    0.45    0.5    0.45    
0.5    0.45    0.5    0.45    0.5    
0.45    0.5    0.45    0.5    0.45    
0.5    0.45    0.5    0.45    0.5    
0.45    0.5    0.45    0.5    0.45    
0.5    0.45    0.5    0.45    0.5    
0.4    0.4    0.4    0.4    0.4    
0.4    0.4    0.4    0.4    0.4    
0.4    0.4    0.4    0.4    0.4    
0.4    0.4    0.4    0.4    0.4    
0.4    0.4    0.4    0.4    0.4    
0.4    0.4    0.4    0.4    0.4    
0.4    0.4    0.4    0.4    0.4    
0.4    0.4    0.4    0.4    0.4    
0.4    0.4    0.4    0.4    0.4    
0.4    0.4    0.4    0.4    0.4    
0.4    0.4    0.4    0.4    0.4    
0.4    0.4    0.4    0.4    0.4    
0.4    0.4    0.4    0.4    0.4    
0.35    0.35    0.35    0.35    0.35    
0.35    0.35    0.35    0.35    0.35    
0.35    0.35    0.35    0.35    0.35    
0.35    0.35    0.35    0.35    0.35    
0.35    0.35    0.35    0.35    0.35    
0.35    0.35    0.35    0.35    0.35    
0.35    0.35    0.35    0.35    0.35    
0.35    0.35    0.35    0.35    0.35    
0.35    0.35    0.35    0.35    0.35    
0.35    0.35    0.35    0.35    0.35    
0.35    0.35    0.35    0.35    0.35    
0.35    0.35    0.35    0.35    0.35    
0.35    0.35    0.35    0.35    0.35    
0.3    0.3    0.3    0.3    0.3    
0.3    0.3    0.3    0.3    0.3    
0.3    0.3    0.3    0.3    0.3    
0.3    0.3    0.3    0.3    0.3    
0.3    0.3    0.3    0.3    0.3    
0.3    0.3    0.3    0.3    0.3    
0.3    0.3    0.3    0.3    0.3    
0.3    0.3    0.3    0.3    0.3    
0.3    0.3    0.3    0.3    0.3    
0.3    0.3    0.3    0.3    0.3    
0.3    0.3    0.3    0.3    0.3    
0.3    0.3    0.3    0.3    0.3    
0.3    0.3    0.3    0.3    0.3    
0.25    0.25    0.25    0.25    0.25    
0.25    0.25    0.25    0.25    0.25    
0.25    0.25    0.25    0.25    0.25    
0.25    0.25    0.25    0.25    0.25    
0.25    0.25    0.25    0.25    0.25    
0.25    0.25    0.25    0.25    0.25    
0.25    0.25    0.25    0.25    0.25    
0.25    0.25    0.25    0.25    0.25    
0.25    0.25    0.25    0.25    0.25    
0.25    0.25    0.25    0.25    0.25    
0.25    0.25    0.25    0.25    0.25    
0.25    0.25    0.25    0.25    0.25    
0.25    0.25    0.25    0.25    0.25    
0.25    0.25    0.25    0.25    0.2    
0.2    0.2    0.2    0.2    0.2    
0.2    0.2    0.2    0.2    0.2    
0.2    0.2    0.2    0.2    0.2    
0.2    0.2    0.2    0.2    0.2    
0.2    0.2    0.2    0.2    0.2    
0.2    0.2    0.2    0.2    0.2    
0.2    0.2    0.2    0.2    0.2    
0.2    0.2    0.2    0.2    0.2    
0.2    0.2    0.2    0.2    0.2    
0.2    0.2    0.2    0.2    0.2    
0.2    0.2    0.2    0.2    0.2    
0.2    0.2    0.2    0.2    0.2    
0.2    0.2    0.2    0.2    0.2    
0.2    0.2    0.2    0.15    0.15    
0.15    0.15    0.15    0.15    0.15    
0.15    0.15    0.15    0.15    0.15    
0.15    0.15    0.15    0.15    0.15    
0.15    0.15    0.15    0.15    0.15    
0.15    0.15    0.15    0.15    0.15    
0.15    0.15    0.15    0.15    0.15    
0.15    0.15    0.15    0.15    0.15    
0.15    0.15    0.15    0.15    0.15    
0.15    0.15    0.15    0.15    0.15    
0.15    0.15    0.15    0.15    0.15    
0.15    0.15    0.15    0.15    0.15    
0.15    0.15    0.15    0.15    0.15    
0.15    0.15    0.15    0.15    0.15    
0.15    0.15    0.1    0.1    0.1    
0.1    0.1    0.1    0.1    0.1    
0.1    0.1    0.1    0.1    0.1    
0.1    0.1    0.1    0.1    0.1    
0.1    0.1    0.1    0.1    0.1    
0.1    0.1    0.1    0.1    0.1    
0.1    0.1    0.1    0.1    0.1    
0.1    0.1    0.1    0.1    0.1    
0.1    0.1    0.1    0.1    0.1    
0.1    0.1    0.1    0.1    0.1    
0.1    0.1    0.1    0.1    0.1    
0.1    0.1    0.1    0.1    0.1    
0.1    0.1    0.1    0.1    0.1    
0.1    0.1    0.1    0.1    0.1    
0.1    0.05    0.05    0.05    0.05    
0.05    0.05    0.05    0.05    0.05    
0.05    0.05    0.05    0.05    0.05    
0.05    0.05    0.05    0.05    0.05    
0.05    0.05    0.05    0.05    0.05    
0.05    0.05    0.05    0.05    0.05    
0.05    0.05    0.05    0.05    0.05    
0.05    0.05    0.05    0.05    0.05    
0.05    0.05    0.05    0.05    0.05    
0.05    0.05    0.05    0.05    0.05    
0.05    0.05    0.05    0.05    0.05    
0.05    0.05    0.05    0.05    0.05    
0.05    0.05    0.05    0.05    0.05    
0.05    0.05    0.05    0.05    0.05    
0.0    0.0    0.0    0.0    0.0    
0.0    0.0    0.0    0.0    0.0    
-2.7755575616e-17    -2.7755575616e-17    -2.7755575616e-17    -2.7755575616e-17    0.0    
0.0    0.0    0.0    0.0    -2.7755575616e-17    
-2.7755575616e-17    0.0    0.0    0.0    0.0    
0.0    -2.7755575616e-17    -2.7755575616e-17    0.0    0.0    
0.0    0.0    0.0    -2.7755575616e-17    -2.7755575616e-17    
0.0    0.0    0.0    0.0    0.0    
-2.7755575616e-17    -2.7755575616e-17    0.0    0.0    0.0    
0.0    0.0    -2.7755575616e-17    -2.7755575616e-17    0.0    
0.0    0.0    0.0    0.0    -2.7755575616e-17    
0.0    0.0    0.0    0.0    0.0    
-2.7755575616e-17    -2.7755575616e-17    0.0    0.0    0.0    
0.0    0.0    0.0    0.0    
-0.1    -0.1    -0.1    -0.1    -0.05    
-0.05    -0.05    -0.05    1.0408340856e-17    -1.7173762412e-17    
-1.9081958236e-17    0.0    0.05    0.05    0.05    
0.05    0.1    0.1    0.1    0.1    
0.15    0.15    0.15    0.15    0.2    
0.2    0.2    0.2    -0.1    -0.1    
-0.05    -0.05    -9.3675067703e-18    -1.0408340856e-17    0.05    
0.05    0.1    0.1    0.15    0.15    
0.2    0.2    -0.1    -0.1    -0.05    
-0.05    1.2490009027e-17    1.3877787808e-17    0.05    0.05    
0.1    0.1    0.15    0.15    0.2    
0.2    -0.1    -0.1    -0.05    -0.05    
2.4980018054e-17    2.7755575616e-17    0.05    0.05    0.1    
0.1    0.15    0.15    0.2    0.2    
-0.1    -0.1    -0.05    -0.05    6.2450045135e-18    
6.9388939039e-18    0.05    0.05    0.1    0.1    
0.15    0.15    -0.1    -0.1    -0.05    
-0.05    1.2490009027e-17    1.3877787808e-17    0.05    0.05    
0.1    0.1    0.15    0.15    -0.1    
-0.1    -0.05    -0.05    -2.4980018054e-17    -2.7755575616e-17    
0.05    0.05    0.1    0.1    0.15    
0.15    -0.05    -0.05    0.0    0.0    
0.05    0.05    0.1    0.1    0.15    
0.15    -0.05    -0.05    1.2490009027e-17    1.3877787808e-17    
0.05    0.05    0.1    0.1    -0.05    
-0.05    0.0    0.0    0.05    0.05    
-0.1    -0.1    -0.05    -0.05    6.9388939039e-18    
-1.5265566589e-17    0.05    0.05    0.1    0.1    
0.15    0.15    0.2    0.2    -0.1    
-0.05    -8.3266726847e-18    0.05    0.1    0.15    
0.2    -0.1    -0.05    1.1102230246e-17    0.05    
0.1    0.15    0.2    -0.1    -0.05    
2.2204460493e-17    0.05    0.1    0.15    0.2    
-0.1    -0.05    5.5511151231e-18    0.05    0.1    
0.15    -0.1    -0.05    1.1102230246e-17    0.05    
0.1    0.15    -0.1    -0.05    -2.2204460493e-17    
0.05    0.1    0.15    -0.05    0.0    
0.05    0.1    0.15    -0.05    1.1102230246e-17    
0.05    0.1    -0.05    0.0    0.05    
-0.1    -0.1    -0.05    -0.05    1.3877787808e-17    
-1.3357370765e-17    0.05    0.05    0.1    0.1    
0.15    0.15    0.2    0.2    -0.1    
-0.05    -7.2858385991e-18    0.05    0.1    0.15    
0.2    -0.1    -0.05    9.7144514655e-18    0.05    
0.1    0.15    0.2    -0.1    -0.05    
1.9428902931e-17    0.05    0.1    0.15    0.2    
-0.1    -0.05    4.8572257327e-18    0.05    0.1    
0.15    -0.1    -0.05    9.7144514655e-18    0.05    
0.1    0.15    -0.1    -0.05    -1.9428902931e-17    
0.05    0.1    0.15    -0.05    0.0    
0.05    0.1    0.15    -0.05    9.7144514655e-18    
0.05    0.1    -0.05    0.0    0.05    
-0.1    -0.1    -0.05    -0.05    6.9388939039e-18    
-1.1449174941e-17    0.05    0.05    0.1    0.1    
0.15    0.15    0.2    0.2    -0.1    
-0.05    -6.2450045135e-18    0.05    0.1    0.15    
0.2    -0.1    -0.05    8.3266726847e-18    0.05    
0.1    0.15    0.2    -0.1    -0.05    
1.6653345369e-17    0.05    0.1    0.15    0.2    
-0.1    -0.05    4.1633363423e-18    0.05    0.1    
0.15    -0.1    -0.05    8.3266726847e-18    0.05    
0.1    0.15    -0.1    -0.05    -1.6653345369e-17    
0.05    0.1    0.15    -0.05    0.0    
0.05    0.1    0.15    -0.05    8.3266726847e-18    
0.05    0.1    -0.05    0.0    0.05    
-0.1    -0.1    -0.05    -0.05    -6.9388939039e-18    
-9.5409791179e-18    0.05    0.05    0.1    0.1    
0.15    0.15    0.2    0.2    -0.1    
-0.05    -5.2041704279e-18    0.05    0.1    0.15    
0.2    -0.1    -0.05    6.9388939039e-18    0.05    
0.1    0.15    0.2    -0.1    -0.05    
1.3877787808e-17    0.05    0.1    0.15    0.2    
-0.1    -0.05    3.469446952e-18    0.05    0.1    
0.15    0.2    -0.1    -0.05    6.9388939039e-18    
0.05    0.1    0.15    0.2    -0.1    
-0.05    -1.3877787808e-17    0.05    0.1    0.15    
0.2    -0.05    0.0    0.05    0.1    
0.15    0.2    -0.05    6.9388939039e-18    0.05    
0.1    -0.05    0.0    0.05    -0.1    
-0.1    -0.05    -0.05    1.3877787808e-17    -7.6327832943e-18    
0.05    0.05    0.1    0.1    0.15    
0.15    0.2    0.2    -0.1    -0.05    
-4.1633363423e-18    0.05    0.1    0.15    0.2    
-0.1    -0.05    5.5511151231e-18    0.05    0.1    
0.15    0.2    -0.1    -0.05    1.1102230246e-17    
0.05    0.1    0.15    0.2    -0.1    
-0.05    2.7755575616e-18    0.05    0.1    0.15    
0.2    -0.1    -0.05    5.5511151231e-18    0.05    
0.1    0.15    0.2    -0.1    -0.05    
-1.1102230246e-17    0.05    0.1    0.15    0.2    
-0.05    0.0    0.05    0.1    0.15    
0.2    -0.05    5.5511151231e-18    0.05    0.1    
-0.05    0.0    0.05    -0.1    -0.1    
-0.05    -0.05    1.3877787808e-17    -5.7245874707e-18    0.05    
0.05    0.1    0.1    0.15    0.15    
0.2    0.2    -0.1    -0.05    -3.1225022568e-18    
0.05    0.1    0.15    0.2    -0.1    
-0.05    4.1633363423e-18    0.05    0.1    0.15    
0.2    -0.1    -0.05    8.3266726847e-18    0.05    
0.1    0.15    0.2    -0.1    -0.05    
2.0816681712e-18    0.05    0.1    0.15    0.2    
-0.1    -0.05    4.1633363423e-18    0.05    0.1    
0.15    0.2    -0.1    -0.05    -8.3266726847e-18    
0.05    0.1    0.15    0.2    -0.05    
0.0    0.05    0.1    0.15    0.2    
-0.05    4.1633363423e-18    0.05    0.1    -0.05    
0.0    0.05    -0.1    -0.1    -0.05    
-0.05    0.0    -3.8163916471e-18    0.05    0.05    
0.1    0.1    0.15    0.15    0.2    
0.2    -0.1    -0.05    -2.0816681712e-18    0.05    
0.1    0.15    0.2    -0.1    -0.05    
2.7755575616e-18    0.05    0.1    0.15    0.2    
-0.1    -0.05    5.5511151231e-18    0.05    0.1    
0.15    0.2    -0.1    -0.05    1.3877787808e-18    
0.05    0.1    0.15    0.2    -0.1    
-0.05    2.7755575616e-18    0.05    0.1    0.15    
0.2    -0.1    -0.05    -5.5511151231e-18    0.05    
0.1    0.15    0.2    -0.05    0.0    
0.05    0.1    0.15    0.2    -0.05    
2.7755575616e-18    0.05    0.1    -0.05    0.0    
0.05    -0.1    -0.1    -0.05    -0.05    
0.0    -1.9081958236e-18    0.05    0.05    0.1    
0.1    0.15    0.15    0.2    0.2    
-0.1    -0.05    -1.0408340856e-18    0.05    0.1    
0.15    0.2    -0.1    -0.05    1.3877787808e-18    
0.05    0.1    0.15    0.2    -0.1    
-0.05    2.7755575616e-18    0.05    0.1    0.15    
0.2    -0.1    -0.05    6.9388939039e-19    0.05    
0.1    0.15    0.2    -0.1    -0.05    
1.3877787808e-18    0.05    0.1    0.15    0.2    
-0.1    -0.05    -2.7755575616e-18    0.05    0.1    
0.15    0.2    -0.05    0.0    0.05    
0.1    0.15    0.2    -0.05    1.3877787808e-18    
0.05    0.1    -0.05    0.0    0.05    
-0.1    -0.1    -0.05    -0.05    0.0    
0.0    0.05    0.05    0.1    0.1    
0.15    0.15    0.2    0.2    -0.1    
-0.05    0.0    0.05    0.1    0.15    
0.2    -0.1    -0.05    0.0    0.05    
0.1    0.15    0.2    -0.1    -0.05    
0.0    0.05    0.1    0.15    0.2    
-0.1    -0.05    0.0    0.05    0.1    
0.15    0.2    -0.1    -0.05    0.0    
0.05    0.1    0.15    0.2    -0.1    
-0.05    0.0    0.05    0.1    0.15    
0.2    -0.05    0.0    0.05    0.1    
0.15    0.2    -0.05    0.0    0.05    
0.1    -0.05    0.0    0.05    
0.5    0.45    0.45    0.5    0.5    
0.45    0.45    0.5    0.5    0.45    
0.45    0.5    0.5    0.45    0.45    
0.5    0.5    0.45    0.45    0.5    
0.5    0.45    0.45    0.5    0.5    
0.45    0.45    0.5    0.4    0.4    
0.4    0.4    0.4    0.4    0.4    
0.4    0.4    0.4    0.4    0.4    
0.4    0.4    0.35    0.35    0.35    
0.35    0.35    0.35    0.35    0.35    
0.35    0.35    0.35    0.35    0.35    
0.35    0.3    0.3    0.3    0.3    
0.3    0.3    0.3    0.3    0.3    
0.3    0.3    0.3    0.3    0.3    
0.25    0.25    0.25    0.25    0.25    
0.25    0.25    0.25    0.25    0.25    
0.25    0.25    0.2    0.2    0.2    
0.2    0.2    0.2    0.2    0.2    
0.2    0.2    0.2    0.2    0.15    
0.15    0.15    0.15    0.15    0.15    
0.15    0.15    0.15    0.15    0.15    
0.15    0.1    0.1    0.1    0.1    
0.1    0.1    0.1    0.1    0.1    
0.1    0.05    0.05    0.05    0.05    
0.05    0.05    0.05    0.05    0.0    
0.0    0.0    0.0    0.0    0.0    
0.5    0.45    0.5    0.45    0.5    
0.45    0.5    0.45    0.5    0.45    
0.5    0.45    0.5    0.45    0.4    
0.4    0.4    0.4    0.4    0.4    
0.4    0.35    0.35    0.35    0.35    
0.35    0.35    0.35    0.3    0.3    
0.3    0.3    0.3    0.3    0.3    
0.25    0.25    0.25    0.25    0.25    
0.25    0.2    0.2    0.2    0.2    
0.2    0.2    0.15    0.15    0.15    
0.15    0.15    0.15    0.1    0.1    
0.1    0.1    0.1    0.05    0.05    
0.05    0.05    0.0    0.0    0.0    
0.5    0.45    0.5    0.45    0.5    
0.45    0.5    0.45    0.5    0.45    
0.5    0.45    0.5    0.45    0.4    
0.4    0.4    0.4    0.4    0.4    
0.4    0.35    0.35    0.35    0.35    
0.35    0.35    0.35    0.3    0.3    
0.3    0.3    0.3    0.3    0.3    
0.25    0.25    0.25    0.25    0.25    
0.25    0.2    0.2    0.2    0.2    
0.2    0.2    0.15    0.15    0.15    
0.15    0.15    0.15    0.1    0.1    
0.1    0.1    0.1    0.05    0.05    
0.05    0.05    0.0    0.0    0.0    
0.5    0.45    0.5    0.45    0.5    
0.45    0.5    0.45    0.5    0.45    
0.5    0.45    0.5    0.45    0.4    
0.4    0.4    0.4    0.4    0.4    
0.4    0.35    0.35    0.35    0.35    
0.35    0.35    0.35    0.3    0.3    
0.3    0.3    0.3    0.3    0.3    
0.25    0.25    0.25    0.25    0.25    
0.25    0.2    0.2    0.2    0.2    
0.2    0.2    0.15    0.15    0.15    
0.15    0.15    0.15    0.1    0.1    
0.1    0.1    0.1    0.05    0.05    
0.05    0.05    0.0    0.0    0.0    
0.5    0.45    0.5    0.45    0.5    
0.45    0.5    0.45    0.5    0.45    
0.5    0.45    0.5    0.45    0.4    
0.4    0.4    0.4    0.4    0.4    
0.4    0.35    0.35    0.35    0.35    
0.35    0.35    0.35    0.3    0.3    
0.3    0.3    0.3    0.3    0.3    
0.25    0.25    0.25    0.25    0.25    
0.25    0.25    0.2    0.2    0.2    
0.2    0.2    0.2    0.2    0.15    
0.15    0.15    0.15    0.15    0.15    
0.15    0.1    0.1    0.1    0.1    
0.1    0.1    0.05    0.05    0.05    
0.05    0.0    0.0    0.0    0.5    
0.45    0.5    0.45    0.5    0.45    
0.5    0.45    0.5    0.45    0.5    
0.45    0.5    0.45    0.4    0.4    
0.4    0.4    0.4    0.4    0.4    
0.35    0.35    0.35    0.35    0.35    
0.35    0.35    0.3    0.3    0.3    
0.3    0.3    0.3    0.3    0.25    
0.25    0.25    0.25    0.25    0.25    
0.25    0.2    0.2    0.2    0.2    
0.2    0.2    0.2    0.15    0.15    
0.15    0.15    0.15    0.15    0.15    
0.1    0.1    0.1    0.1    0.1    
0.1    0.05    0.05    0.05    0.05    
0.0    0.0    0.0    0.5    0.45    
0.5    0.45    0.5    0.45    0.5    
0.45    0.5    0.45    0.5    0.45    
0.5    0.45    0.4    0.4    0.4    
0.4    0.4    0.4    0.4    0.35    
0.35    0.35    0.35    0.35    0.35    
0.35    0.3    0.3    0.3    0.3    
0.3    0.3    0.3    0.25    0.25    
0.25    0.25    0.25    0.25    0.25    
0.2    0.2    0.2    0.2    0.2    
0.2    0.2    0.15    0.15    0.15    
0.15    0.15    0.15    0.15    0.1    
0.1    0.1    0.1    0.1    0.1    
0.05    0.05    0.05    0.05    0.0    
0.0    0.0    0.5    0.45    0.5    
0.45    0.5    0.45    0.5    0.45    
0.5    0.45    0.5    0.45    0.5    
0.45    0.4    0.4    0.4    0.4    
0.4    0.4    0.4    0.35    0.35    
0.35    0.35    0.35    0.35    0.35    
0.3    0.3    0.3    0.3    0.3    
0.3    0.3    0.25    0.25    0.25    
0.25    0.25    0.25    0.25    0.2    
0.2    0.2    0.2    0.2    0.2    
0.2    0.15    0.15    0.15    0.15    
0.15    0.15    0.15    0.1    0.1    
0.1    0.1    0.1    0.1    0.05    
0.05    0.05    0.05    0.0    0.0    
0.0    0.5    0.45    0.5    0.45    
0.5    0.45    0.5    0.45    0.5    
0.45    0.5    0.45    0.5    0.45    
0.4    0.4    0.4    0.4    0.4    
0.4    0.4    0.35    0.35    0.35    
0.35    0.35    0.35    0.35    0.3    
0.3    0.3    0.3    0.3    0.3    
0.3    0.25    0.25    0.25    0.25    
0.25    0.25    0.25    0.2    0.2    
0.2    0.2    0.2    0.2    0.2    
0.15    0.15    0.15    0.15    0.15    
0.15    0.15    0.1    0.1    0.1    
0.1    0.1    0.1    0.05    0.05    
0.05    0.05    0.0    0.0    0.0    
0.5    0.45    0.5    0.45    0.5    
0.45    0.5    0.45    0.5    0.45    
0.5    0.45    0.5    0.45    0.4    
0.4    0.4    0.4    0.4    0.4    
0.4    0.35    0.35    0.35    0.35    
0.35    0.35    0.35    0.3    0.3    
0.3    0.3    0.3    0.3    0.3    
0.25    0.25    0.25    0.25    0.25    
0.25    0.25    0.2    0.2    0.2    
0.2    0.2    0.2    0.2    0.15    
0.15    0.15    0.15    0.15    0.15    
0.15    0.1    0.1    0.1    0.1    
0.1    0.1    0.05    0.05    0.05    
0.05    0.0    0.0    0.0    
399.562926785    399.663493277    399.002467096    399.002467096    399.42780734    
398.706056833    398.706056833    399.241021286    398.309255322    398.309255322    
398.973067927    397.763647508    397.763647509    398.568883737    396.987319197    
396.987319197    395.831790064    395.831790065    398.37608366    397.042840053    
397.898637093    396.169111531    397.263636831    395.00363874    396.398520639    
393.409416116    395.183887773    391.158841102    393.411343764    387.850836705    
397.803465636    395.185656774    397.166643959    393.778038367    396.326647684    
391.912397077    395.195111436    389.383360919    393.630953108    385.859077701    
391.396881208    380.776361042    397.29900128    393.487540528    396.528125567    
391.609631733    395.520293747    389.140847812    394.178530319    385.831128299    
392.352248759    381.288542578    374.872549764    396.872243708    391.991180282    
395.993513366    389.717426618    394.854442036    386.754310611    393.354501076    
382.827557213    391.341096676    377.519346604    396.528627419    390.725006767    
395.567234361    388.132547881    394.330306328    384.782479732    392.716709761    
380.390728738    390.575488741    374.534666376    389.70527774    395.249798592    
386.868394817    393.944234479    383.229523643    392.253487329    378.503184845    
390.029338592    372.27213646    395.039773824    385.926753166    393.690896196    
382.085152904    391.952702854    377.131425611    370.656676398    394.935343337    
385.30360264    393.565572698    381.333989514    376.240298938    384.99371318    
380.962327245    398.37608366    397.898637094    397.263636832    396.39852064    
395.183887774    393.411343766    395.185656775    393.778038369    391.912397079    
389.383360921    385.859077703    380.776361044    392.161253296    389.89279601    
386.9048598    382.889625688    377.363472793    369.536655677    389.394858386    
386.367293114    382.410971472    377.151349844    370.018199991    360.116585566    
386.956072425    383.288763647    378.537258559    372.291298712    363.944735379    
384.891511098    380.708466007    375.333325491    368.341983203    359.123623222    
383.228085194    378.64903213    372.80762326    365.278584865    355.461359962    
377.114189491    370.944991041    363.049753267    352.84216582    376.098073333    
369.721659199    361.600653912    375.592640583    369.116163659    397.803465638    
397.166643962    396.326647687    395.19511144    393.630953112    391.396881212    
393.487540533    391.609631739    389.14084782    385.831128308    381.288542587    
374.872549775    389.394858393    386.367293122    382.410971481    377.151349854    
370.018200002    360.116585577    385.649488305    381.60673744    376.3642197    
369.466874898    360.24451378    347.689583792    382.345749506    377.446065189    
371.144881436    362.944908085    352.13711198    379.547279069    373.955615826    
366.822142204    357.634338195    345.681889662    377.291268194    371.167434082    
363.410282384    353.507604651    340.765368137    369.08801669    360.891568161    
350.500698358    337.241718202    367.710648627    359.236083757    348.543610625    
367.0253001    358.416310662    397.299001286    396.528125573    395.520293753    
394.178530326    392.352248767    389.795814606    391.991180299    389.717426635    
386.75431063    382.827557233    377.51934663    370.168329373    386.956072453    
383.288763676    378.53725859    372.291298743    363.944735414    352.578831822    
382.345749534    377.446065216    371.144881462    362.944908112    352.137112012    
337.696479053    378.276417664    372.334643305    364.754694885    354.994943302    
342.310145985    374.827117734    368.042308441    359.454409895    348.507501363    
334.460826523    372.044667488    364.610389317    355.265321934    343.456355972    
328.465689646    362.04885956    352.169336756    339.769935257    324.15919053    
360.351141611    350.132705321    337.367708643    359.506083074    349.123667943    
396.872243719    395.993513376    394.854442047    393.354501089    391.34109669    
388.57077179    390.725006801    388.132547913    384.782479764    380.390728773    
374.534666418    366.561066624    384.891511157    380.708466064    375.333325545    
368.341983257    359.123623285    346.777104821    379.547279143    373.95561589    
366.822142262    357.634338257    345.681889736    329.970070021    374.827117789    
368.042308483    359.454409933    348.507501407    334.460826591    370.82345134    
363.071674627    353.334490566    341.044134322    325.471146556    367.591744874    
359.093744476    348.491157304    335.222082999    318.586626284    356.122341626    
344.907630388    330.966321339    313.630369272    354.151795142    342.548293317    
328.189823882    353.170569481    341.37876471    396.528627439    395.567234377    
394.330306343    392.716709779    390.575488762    387.669139712    389.7052778    
386.868394868    383.229523695    378.503184899    372.272136525    363.901442526    
383.2280853    378.649032223    372.807623341    365.278584952    355.461360064    
342.486281392    377.291268329    371.167434191    363.410282482    353.50760476    
340.765368269    316.328586112    324.233946853    372.0446676    364.610389407    
355.265322022    343.456356077    328.465689793    305.687839308    309.365770735    
367.591744922    359.093744527    348.491157357    335.22208306    318.586626364    
297.727064475    297.72706455    363.995310825    354.675159213    343.123673479    
328.787902818    311.003404796    292.10322793    288.992053151    351.37224103    
339.148332076    324.078086253    305.533610024    282.80518462    349.180654029    
336.529040566    321.002127242    348.088993035    335.230039978    396.270594331    
395.249798613    393.944234502    392.253487355    390.029338622    387.040349627    
388.939380666    385.926753233    382.085152977    377.131425691    370.656676493    
362.044167558    381.978270743    377.114189601    370.94499116    363.049753395    
352.842165966    339.482766559    375.595400413    369.088016825    360.891568308    
350.500698526    337.241718406    320.206705611    369.951931557    362.048859678    
352.169336905    339.769935434    324.159190762    304.461730638    365.159779335    
356.122341711    344.907630508    330.966321485    313.630369462    292.103228092    
361.287516459    351.372241065    339.148332151    324.07808635    305.533610149    
282.805184719    347.819442921    334.879320816    319.030224043    299.684461566    
276.20608504    345.461005221    332.064796867    315.730694595    344.285907603    
330.668437478    396.098776027    395.039773848    393.690896225    391.952702887    
389.679368116    386.643966955    388.429312932    385.303602715    381.333989605    
376.240299047    369.620824616    360.872272788    381.145699617    376.098073452    
369.721659342    361.600654076    351.160720871    337.584448059    374.465276435    
367.710648769    359.236083944    348.543610855    334.97618132    317.655924301    
368.556758135    360.351141746    350.132705522    337.367708901    321.385700877    
301.348470046    363.537770956    354.151795249    342.548293504    328.189824146    
310.433239941    288.525153569    359.480849278    349.180654075    336.529040714    
321.002127479    302.000154021    278.861328896    345.461005227    332.064796946    
315.730694745    295.901620226    271.993067319    342.991033967    329.120282703    
312.282993541    341.760123364    327.659037513    396.01300036    394.935343362    
393.565572729    391.80486946    389.508743729    386.452614416    388.174652271    
384.993713257    380.962327345    375.802197424    369.115610391    360.306235054    
380.729952873    375.5926407    369.116163817    360.887880956    350.340051188    
336.666631178    373.900817853    367.025300241    358.416310872    347.580338358    
333.869412638    316.421078115    367.859736638    359.506083218    349.123668179    
336.184476628    320.029414305    299.839243956    362.727211843    353.170569594    
341.378764948    326.821253602    308.86823763    286.78828303    358.577794425    
348.088993082    335.230040182    319.484964955    300.268997477    276.944656511    
344.285907614    330.668437625    314.102406321    294.046974484    269.943678947    
341.760123357    327.659037585    310.580960124    340.501270977    326.165384698    

-0.025    -0.075    -0.075    -0.075    0.025    
-0.025    -0.025    0.075    0.025    0.025    
0.125    0.075    0.075    0.175    0.125    
0.125    0.175    0.175    -0.075    -0.075    
-0.025    -0.025    0.025    0.025    0.075    
0.075    0.125    0.125    0.175    0.175    
-0.075    -0.075    -0.025    -0.025    0.025    
0.025    0.075    0.075    0.125    0.125    
0.175    0.175    -0.075    -0.075    -0.025    
-0.025    0.025    0.025    0.075    0.075    
0.125    0.125    0.175    -0.075    -0.075    
-0.025    -0.025    0.025    0.025    0.075    
0.075    0.125    0.125    -0.075    -0.075    
-0.025    -0.025    0.025    0.025    0.075    
0.075    0.125    0.125    -0.075    -0.025    
-0.025    0.025    0.025    0.075    0.075    
0.125    0.125    -0.025    -0.025    0.025    
0.025    0.075    0.075    0.125    -0.025    
-0.025    0.025    0.025    0.075    -0.025    
0.025    -0.075    -0.025    0.025    0.075    
0.125    0.175    -0.075    -0.025    0.025    
0.075    0.125    0.175    -0.075    -0.025    
0.025    0.075    0.125    0.175    -0.075    
-0.025    0.025    0.075    0.125    0.175    
-0.075    -0.025    0.025    0.075    0.125    
-0.075    -0.025    0.025    0.075    0.125    
-0.075    -0.025    0.025    0.075    0.125    
-0.025    0.025    0.075    0.125    -0.025    
0.025    0.075    -0.025    0.025    -0.075    
-0.025    0.025    0.075    0.125    0.175    
-0.075    -0.025    0.025    0.075    0.125    
0.175    -0.075    -0.025    0.025    0.075    
0.125    0.175    -0.075    -0.025    0.025    
0.075    0.125    0.175    -0.075    -0.025    
0.025    0.075    0.125    -0.075    -0.025    
0.025    0.075    0.125    -0.075    -0.025    
0.025    0.075    0.125    -0.025    0.025    
0.075    0.125    -0.025    0.025    0.075    
-0.025    0.025    -0.075    -0.025    0.025    
0.075    0.125    0.175    -0.075    -0.025    
0.025    0.075    0.125    0.175    -0.075    
-0.025    0.025    0.075    0.125    0.175    
-0.075    -0.025    0.025    0.075    0.125    
0.175    -0.075    -0.025    0.025    0.075    
0.125    -0.075    -0.025    0.025    0.075    
0.125    -0.075    -0.025    0.025    0.075    
0.125    -0.025    0.025    0.075    0.125    
-0.025    0.025    0.075    -0.025    0.025    
-0.075    -0.025    0.025    0.075    0.125    
0.175    -0.075    -0.025    0.025    0.075    
0.125    0.175    -0.075    -0.025    0.025    
0.075    0.125    0.175    -0.075    -0.025    
0.025    0.075    0.125    0.175    -0.075    
-0.025    0.025    0.075    0.125    -0.075    
-0.025    0.025    0.075    0.125    -0.075    