Title = " tecplot file for 2D Cavity problem " 
variables = "x", "y", "z", "velX", "cellCentroidY" 
Zone T = "nmesh0" N = 1613 E = 7465 DATAPACKING = BLOCK, VARLOCATION = ([4-5]=CELLCENTERED),  ZONETYPE=FETETRAHEDRON 
-0.5    -0.5    -0.41134600764    -0.5    -0.34046036394    
-0.4    -0.33816381432    -0.3    -0.5    -0.4138704772    
-0.5    0.42916656098    0.42842150611    0.4    0.34051337454    
-0.2    -0.24482126451    -0.23575467071    -0.3    0.23262767273    
0.3    0.24682008018    0.2    -0.5    -0.41079876965    
-0.5    -0.5    0.5    0.5    0.39956721182    
0.5    -0.41755533647    -0.5    -0.5    -0.5    
-0.41745815834    -0.5    -0.5    -0.4300082147    0.33600985395    
0.3    0.050808641656    -0.035402467434    0.049179657707    0.0    
0.1    0.5    0.41584150354    0.5    0.5    
0.13323196877    0.14898078702    -0.23731312734    -0.23426535023    -0.2    
-0.33969382413    -0.33821104813    -0.3    -0.4    -0.5    
-0.5    -0.41666113413    -0.5    -0.5    -0.41775355887    
-0.5    -0.5    -0.5    -0.5    -0.41741512105    
-0.5    -0.5    -0.5    -0.40002769782    -0.5    
0.23838104958    0.23887904452    0.3    0.2    -0.5    
-0.5    -0.41487956845    -0.5    0.2    0.23892791459    
0.23153735228    0.3    0.13732468972    0.13702752594    0.1    
0.5    0.40325324194    0.5    0.5    -0.5    
-0.5    -0.40273798903    -0.5    -0.13552710118    -0.14568896865    
-0.1    0.051427559857    0.0    0.051554777552    0.41387764401    
0.5    0.5    -0.2    -0.23654934253    -0.23442631643    
-0.033156112103    -0.033137891856    -0.1    0.5    0.41298543705    
0.5    0.34441498948    0.42951665674    0.43006137423    0.4    
-0.41743449236    -0.5    -0.5    -0.5    0.5    
0.4115682451    0.5    -0.41627466288    -0.5    -0.5    
-0.5    -0.5    -0.41934049572    -0.5    -0.5    
0.23931697742    0.23159534999    0.2    -0.23404010439    -0.23444991455    
-0.2    -0.3    -0.5    -0.5    0.051624035259    
0.1    0.048148862371    0.0    0.13209314197    0.5    
0.5    0.41565943951    0.5    0.41283694009    0.5    
0.5    0.5    0.5    0.41458409037    -0.5    
-0.5    -0.41860062223    -0.5    -0.5    -0.41816796048    
-0.5    -0.5    -0.5    -0.41568232088    0.41248339184    
0.5    0.5    0.5    -0.41441025097    -0.5    
-0.047222460383    0.13736922805    0.41578080408    0.5    0.5    
0.5    0.5    0.39991586198    0.5    -0.5    
-0.5    -0.41676526452    -0.5    0.43047251134    0.5    
0.5    0.41389108349    0.5    -0.5    -0.41242957882    
0.5    0.41575913228    0.5    -0.13730986025    -0.1336076051    
-0.1    0.5    0.5    0.41276644951    0.5    
-0.4301340215    -0.5    -0.33765962447    -0.3384099287    -0.4    
-0.42990811394    0.5    -0.43346245512    -0.5    -0.5    
-0.41331855513    -0.5    -0.5    0.5    0.5    
0.41672585222    0.5    0.5    0.41575962317    0.5    
-0.5    -0.5    0.5    0.40988493213    0.5    
-0.5    -0.41721146073    0.0    0.051788512588    0.048302279937    
0.1    0.5    0.41256688197    0.5    0.5    
0.41643862762    0.43227991151    0.5    0.3402389744    0.4    
0.33977021174    0.42808287283    0.5    0.40981870864    0.5    
-0.41390721939    -0.5    -0.036539552942    -0.1    -0.032957545583    
-0.13666224726    -0.13378452454    0.5    0.43249949214    0.5    
0.5    0.5    0.42913825798    0.5    0.5    
0.42836019649    0.4    0.39867108893    0.5    0.5    
0.5    0.5    -0.5    -0.41449434413    0.41596076012    
0.5    0.4122946649    0.5    0.5    -0.5    
-0.42860007786    -0.5    -0.5    -0.42966308666    -0.43062428304    
-0.5    0.43150808053    0.13770463614    0.13218280363    0.41138953425    
0.5    0.5    -0.43102263743    -0.43075397645    -0.5    
0.5    0.5    0.41634526442    -0.41844879934    -0.5    
-0.5    -0.5    -0.41560975998    -0.41534302811    0.5    
0.39948298875    0.5    -0.43026673074    0.5    0.5    
0.33682557706    -0.5    -0.41564796953    -0.5    -0.41585244471    
-0.5    -0.036901781235    -0.032990049868    -0.4    -0.3434495945    
-0.33931008122    0.42833647092    0.5    0.5    0.5    
0.42305210233    0.5    0.5    0.5    0.5    
0.4303612709    0.5    0.5    0.5    0.5    
0.41981491446    0.5    0.5    0.5    0.5    
0.5    0.41225287318    0.5    0.5    0.41605117917    
0.5    0.5    0.5    0.41069173813    0.5    
0.42213836312    0.5    0.41165295243    0.5    0.42138621211    
0.42351570725    0.42168983817    0.41894367337    0.5    0.40994277596    
0.5    0.5    0.33714348864    0.42452907562    0.5    
0.5    0.3400972769    0.40643143654    0.5    0.5    
0.42249646783    0.5    0.5    0.40504917502    0.5    
0.33957649135    0.5    0.41527977586    0.5    0.5    
0.5    0.4208522141    0.41016995907    0.41966915131    0.5    
0.40371522307    0.5    0.5    0.41829329729    0.5    
0.41874924302    0.5    0.41797992587    0.5    0.40574300289    
0.5    0.40456363559    0.5    0.41985109448    0.40572524071    
0.5    0.32618201123    0.41569638252    0.5    0.41678509116    
0.5    0.41083729267    0.5    0.5    0.41752371192    
0.5    0.41802930832    0.32744805705    0.32544157873    0.40966212749    
0.5    0.41768452525    0.32678941768    0.41065472364    0.5    
0.32383922021    0.41724288464    0.5    0.40414276719    0.5    
0.5    0.41441592574    0.4073561728    0.40398982167    0.5    
0.40851894021    0.5    0.5    0.40883976221    0.40686893463    
0.40083095431    0.40529754758    0.5    -0.24401451815    -0.27857327461    
-0.33351657523    -0.25818869482    -0.32791251751    -0.2420310765    -0.27776193619    
-0.33306600263    -0.32768036898    -0.15441928309    -0.26415387702    -0.22558563948    
-0.17605371148    -0.22806143745    -0.22187739611    -0.26065340985    -0.17071343233    
-0.39634945989    -0.33276963805    -0.39524412155    -0.15784823572    -0.18403604627    
-0.1544154289    -0.23984447934    -0.23336877561    -0.27676409483    -0.36108124256    
0.075355291367    0.045580776326    0.054106608372    0.16165715167    0.05350411837    
0.024046033621    0.045422997231    -0.075540573349    -0.12125059962    -0.12233015178    
-0.1658810894    0.2552965064    0.21618300676    -0.21442145109    -0.35869646072    
-0.35903713107    -0.38899332285    -0.5    0.032099205532    0.12681150436    
0.075273913793    0.13917322365    0.1659873915    0.24049588671    0.28412730101    
0.33738765121    0.32846847876    0.21599367261    0.24149773849    -0.38708239794    
-0.329905448    0.018218039662    -0.030118683353    -0.031523656171    -0.07705043303    
-0.0022199044737    0.10691646487    0.11026169429    0.057250451248    0.15323724917    
-0.081540942192    -0.071421034468    -0.064321370558    -0.11265317724    -0.1661876142    
-0.29730021954    -0.324375812    0.22844861004    0.29309883714    0.32237941699    
0.23439248765    -0.38386720419    -0.5    0.22001201334    0.26720950007    
0.32631998995    -0.077027626336    -0.064485211352    -0.072300872047    0.1615903074    
0.18354015052    0.1743232997    0.1739910841    0.13434351875    -0.12862838805    
0.29473999143    -0.024988340214    -0.29411423206    -0.059786099941    0.089801393449    
0.098131755548    0.075945161283    -0.013383025303    -0.014308815683    0.11269637197    
0.199893713    0.32413241278    -0.0013214884093    -0.058995011316    -0.5    
-0.42296874523    -0.5    -0.5    -0.5    -0.5    
-0.5    -0.41858366132    -0.5    -0.5    -0.4149222672    
-0.5    -0.5    -0.5    -0.42031270266    -0.5    
-0.5    -0.5    -0.5    -0.5    -0.41247305274    
-0.5    -0.5    -0.41230586171    -0.5    -0.5    
-0.41945183277    -0.41925102472    -0.4061858356    -0.5    -0.33564345882    
-0.5    -0.5    -0.40949591994    -0.5    -0.5    
-0.41984084249    -0.40546795726    -0.34200738938    -0.5    -0.5    
-0.40555220842    -0.5    -0.42113384604    -0.5    -0.42181426287    
-0.5    -0.5    -0.5    -0.5    -0.41490575671    
-0.5    -0.5    -0.41870516539    -0.5    -0.40467980504    
-0.5    -0.5    -0.5    -0.41238322854    -0.5    
-0.41764780879    -0.32830968369    -0.5    -0.40432208776    -0.41940274835    
-0.5    -0.40948399901    -0.40513378382    -0.5    -0.41717198491    
-0.33505609634    -0.33318984043    -0.41121000051    -0.5    -0.40904137492    
-0.5    -0.5    -0.41883659363    -0.40545964241    -0.5    
-0.41817352176    -0.5    -0.33084397547    -0.41718125343    -0.5    
-0.41744318604    -0.5    -0.41588535905    -0.5    -0.5    
-0.41298130155    -0.39857164025    -0.5    -0.40753334761    -0.4110968709    
-0.5    -0.40931382775    -0.5    -0.40122872591    -0.40045493841    
-0.5    -0.5    -0.40561062098    0.04200366788    -0.0090313917026    
-0.059950577298    -0.0091472639982    -0.0092070130631    -0.068697194278    0.050223418972    
-0.24631274311    -0.28019207716    -0.26011336554    -0.3341501779    -0.27584463358    
-0.23610930287    -0.33131123226    -0.25946559035    -0.22120118141    -0.17009782121    
-0.17413212761    -0.22436501086    -0.263208228    0.053433206699    0.023724900559    
0.052885035648    -0.064541433245    0.21797369421    0.16411380728    0.25717960571    
-0.23238664304    -0.27598884702    -0.33237166555    0.076829195023    0.048075954435    
-0.057339440053    -0.10666322708    -0.11170014509    -0.15095010298    -0.22483046569    
-0.27079838514    -0.32809906657    -0.21457947791    -0.16503904625    0.17285842098    
0.27771398425    0.22454390791    0.28258649104    0.32601154681    0.22335318204    
0.26937237382    0.32758430144    0.14581726186    0.10116890073    0.10731705885    
-0.0029370042708    0.050372379595    -0.077098563313    -0.13361635566    -0.13381888202    
-0.06491680317    -0.11743831635    -0.11857869927    -0.20199267566    -0.32038648048    
-0.23019745408    0.28691256046    0.28398631369    0.15019595875    0.17428602278    
0.23516532036    0.13749680461    -0.0798689574    -0.068677297262    -0.090018058647    
0.18275566399    0.17420459679    0.10141577572    0.10382794224    -0.0081998756346    
0.22567240675    0.19867786765    -0.0057675576389    -0.0042448728345    0.22848429558    
0.25836831331    0.32094819056    0.099178366363    0.11803464131    0.052421696484    
-0.0096004065126    0.29779165983    0.32309466119    0.33511499039    -0.12863354104    
-0.11733826995    -0.16343067608    -0.25131191065    -0.29952433705    -0.32074041795    
-0.32652065401    -0.21221353114    -0.22367913135    -0.161649574    -0.237270241    
-0.27943652868    -0.26598328502    -0.31005772948    -0.3306343031    -0.26112896212    
-0.12163091471    -0.12131308764    -0.070235245477    -0.17207309099    -0.030813786018    
-0.22914127163    -0.22047735751    -0.17116185095    0.33723041415    0.32822196975    
0.13884566706    0.12572585046    0.16471370862    0.23988850923    0.033159035033    
0.073618157014    0.21497009695    0.24030808209    -0.2228654474    -0.2592530317    
-0.21711791511    -0.24696463346    -0.30009683746    -0.30936211348    0.056835947699    
0.10646627098    0.11013898558    0.15242388821    0.2551958203    0.30577623844    
0.33595085147    0.2280630121    0.2927288115    0.32190140742    0.23332722535    
0.17253126204    0.13184266684    -0.088694609702    -0.11363914089    0.010070850813    
-0.17771369258    -0.12475030869    -0.12423636989    0.21983735443    0.21220782399    
0.29400601983    -0.016939789057    -0.013743156412    -0.11382297204    -0.11663387716    
-0.0017305336023    0.02532113716    -0.054190154165    -0.10988757014    0.090107783675    
0.098318660603    0.0042388816364    0.11259226501    0.10177732259    0.26118835807    
-0.0044047106057    0.071843892336    0.13554979869    0.096038199961    0.19503767234    
0.099135915325    0.053428890811    0.0048525476329    0.0098382532597    -0.02876667971    
0.027520179138    0.071248449385    0.13124883421    0.05497633249    0.060427083065    
0.070297665894    0.13032715471    0.025589508627    0.057757489939    0.3348266298    
0.28943228722    0.29376521122    0.23970503818    -0.34318292141    -0.29205598748    
-0.33475478502    0.14771813154    -0.1486280825    -0.18488626182    -0.2427204482    
-0.242702547    -0.16331023844    0.1781591624    0.15922263008    -0.23927073798    
-0.30079066753    -0.32834642832    -0.30998492241    -0.33065524837    -0.26108842105    
0.10916212201    0.11208969134    0.15496959329    0.23030810958    0.28165134788    
0.28492171403    0.32972420545    -0.12861982796    -0.17706693709    0.011399649084    
-0.053748317046    -0.18194536865    -0.24258606722    -0.14679513415    -0.15645491866    
0.17495837808    0.23184024665    0.23532533421    -0.22906027462    -0.22041392326    
-0.1710930563    -0.111761495    -0.30063694715    0.17415370047    0.23624265987    
-0.10732157528    -0.00076911469271    -0.060991029216    0.0074519892223    0.29551333189    
0.32577306634    -0.17937526107    -0.058950658888    -0.30518463254    0.29951098561    
0.32514679745    -0.18401253223    0.43463635445    0.41288724785    -0.43993908167    
-0.41476941821    0.4108916223    0.4183511734    0.41627711058    0.5    
0.42067414522    0.35672467947    0.42327445745    0.365768224    0.42226392031    
0.41622126102    0.33426624537    0.41642519832    0.4168253839    0.4201413095    
0.40772935748    0.39354494214    0.404743433    0.41910865903    0.41396996379    
0.41279682517    0.41278079152    0.40442427993    0.41125491261    0.42098331451    
0.41994029284    0.41080650687    0.42240139842    0.41142642498    -0.30145567656    
0.31229171157    0.15790265799    0.17538171111    -0.41469320655    0.42564427853    
-0.13780000806    -0.0092536676675    -0.16023084521    -0.41519010067    0.34415650368    
-0.15779961646    0.23029404879    -0.17534734309    0.23977512121    -0.23570425808    
-0.14558345079    0.11961134523    -0.030030202121    0.022982079536    0.30331286788    
-0.082493901253    0.05798689276    -0.4112996459    -0.41808357835    -0.3277609913    
-0.39426568151    -0.42356720567    -0.42391347885    -0.42915225029    -0.41798526049    
-0.40122249722    -0.40326237679    -0.40986120701    -0.41669696569    -0.41463297606    
-0.40359905362    -0.40482291579    -0.38823884726    -0.40399912    -0.4073702395    
-0.39808636904    -0.4099829793    -0.28851944208    -0.41078579426    -0.41999131441    
-0.43093168736    -0.40607604384    -0.4106734097    -0.42181283236    -0.3158608377    
-0.35370069742    0.31472048163    -0.34252545238    -0.34801006317    -0.13263377547    
-0.16532303393    0.34714686871    -0.1905174493    -0.16084399819    0.19872111082    
0.3087477088    0.19613178074    0.073977522552    0.13125571609    0.024327076972    
-0.017021905631    0.16530394554    0.10078687221    0.10164710879    -0.029528370127    
0.3797275722    -0.14493252337    -0.093885757029    -0.33527871966    -0.28857129812    
-0.30652436614    0.42512446642    0.30595946312    -0.32520535588    -0.20739768445    
-0.31953698397    -0.38462617993    0.34128198028    0.34028389127    0.22574973106    
-0.15493921936    -0.19939783216    -0.014558871277    -0.10112082213    -0.19483135641    
0.091971047223    0.10747696459    0.17720426619    0.33006593585    0.012834740803    
-0.01630297862    0.086958691478    0.15989041328    0.00073439249536    -0.31226351857    
-0.42919543386    0.1236821264    0.22944653034    0.34785842896    -0.29728317261    
0.17347851396    0.20889785886    -0.072128616273    0.084975063801    -0.042051788419    
0.26084318757    0.017661919817    0.31296682358    0.38542744517    0.35493135452    
0.32450819016    0.39897340536    0.32872989774    0.32177346945    0.4085174799    
0.42426067591    0.36976534128    0.3855291307    0.31500515342    -0.35320955515    
-0.30012190342    0.35841032863    0.34836876392    -0.076444171369    -0.21922567487    
-0.093923687935    0.12949699163    0.02540740557    0.046723969281    0.050998203456    
-0.15084071457    -0.39494851232    -0.40124544501    -0.29612326622    -0.33793058991    
-0.39718410373    -0.33262723684    -0.31114178896    -0.43239808083    -0.36995851994    
-0.21176297963    -0.31082767248    -0.25045061111    -0.32854515314    -0.36220404506    
-0.38879555464    -0.33769670129    -0.29911604524    0.35665869713    0.3462074995    
0.23858314753    -0.33178433776    -0.35651803017    -0.32330669084    -0.35020586848    
-0.28339850903    -0.22941367328    0.35243031383    0.31797783875    0.34692415595    
0.2825846076    0.045684359968    0.17613555491    0.36005350947    -0.22749258578    
-0.30683600903    -0.2042337358    -0.3244908452    -0.17448301613    0.37964245677    
0.24450056255    0.33264538646    0.27569195628    0.32169282436    0.22912324965    
0.040414143354    0.235117957    0.16359171271    0.27145576477    0.18004000187    
0.12609431148    0.10304665565    -0.063643850386    -0.053415659815    0.23749235272    
-0.34938344359    -0.33235824108    -0.24915324152    0.3537606895    -0.33150443435    
-0.22467558086    -0.19176098704    -0.2693310976    -0.34231925011    0.094177126884    
-0.08715891093    -0.047226355567    -0.089128628373    0.30632644892    0.35427135229    
0.31388688087    0.25505360961    0.043514356017    -0.24107302725    0.42380711436    
0.33005258441    0.13241352141    0.24845309556    0.29873308539    0.3027382791    
0.28961977363    0.25203999877    0.33483195305    0.27065211535    0.32073333859    
0.32815802097    0.32033136487    0.27539527416    -0.2187473774    0.20948413014    
0.31029897928    0.36348101497    0.27479037642    0.34152519703    0.28594651818    
0.26374059916    0.16394655406    -0.0916967839    -0.072593301535    -0.1001540646    
-0.083267346025    0.031862605363    0.15861544013    0.047332841903    0.041503503919    
-0.041165109724    -0.31429108977    -0.32110860944    -0.37150645256    -0.31548586488    
-0.28796958923    -0.305768013    -0.36802744865    -0.28083875775    -0.33510330319    
-0.3249335289    -0.31909075379    -0.44591996074    -0.12605653703    -0.27375280857    
-0.25071310997    -0.33818015456    -0.20621149242    -0.18753695488    -0.30234223604    
-0.27456402779    -0.20082744956    -0.32705008984    -0.078038915992    -0.056873571128    
-0.092446729541    -0.19577488303    0.35711050034    0.29253688455    0.3377006948    
0.25532969832    0.28339627385    -0.061174482107    0.26911845803    0.28886640072    
0.1826480031    0.20131455362    0.24962322414    -0.29586040974    -0.32329005003    
-0.27540779114    -0.17208123207    -0.32942968607    -0.27115908265    -0.26823887229    
-0.33732712269    -0.29901599884    -0.15845650434    -0.22109769285    -0.24838085473    
0.34551140666    0.32283324003    0.28731971979    0.32975903153    -0.15667569637    
0.1760070771    0.20027701557    0.10974547267    0.33799776435    0.28541332483    
-0.083216667175    -0.19766585529    -0.2143522054    -0.19415563345    -0.04494119063    
-0.12358992547    0.12168388069    0.19700033963    0.13448160887    0.19848676026    
0.23640879989    0.33997377753    -0.0037518604659    -0.051470957696    0.05218212679    
-0.075059778988    0.031621340662    0.23129664361    0.17132388055    -0.049388173968    
-0.091621786356    -0.30310287634    -0.28587833047    -0.23312325776    -0.33568501472    
0.16273595393    0.15969090164    -0.32209268212    -0.16738939285    0.17064832151    
-0.098757520318    -0.026364712045    -0.12949573994    0.32779544592    0.23321388662    
-0.12082306296    0.23224464059    0.23529757559    0.015866626054    -0.014932824299    
-0.08676879853    -0.10741198063    -0.17285977304    -0.018017932773    0.06172849983    
0.20185385644    0.36965695024    0.30533906817    0.20047597587    0.22903570533    
0.12949590385    0.20252458751    0.17235597968    0.13790485263    0.31950846314    
0.31985118985    0.33092859387    0.34120205045    0.21880926192    0.29648944736    
0.33286830783    0.34095993638    0.4014864862    0.32444682717    -0.21956521273    
0.27762913704    -0.039546322078    -0.1325224936    0.25187698007    0.22624154389    
0.16945490241    0.06426165998    0.10646748543    0.099418915808    0.10967241228    
-0.0049792267382    -0.15926118195    -0.18744929135    -0.1123976931    -0.17177045345    
-0.19182032347    0.03918877244    0.13161307573    0.22722111642    0.10399028659    
0.1569955647    0.20344738662    0.20461961627    -0.0067209075205    0.014297979884    
0.040696881711    -0.03237491101    0.033566184342    0.056703593582    -0.049583990127    
-0.0081724626943    -0.3121239543    -0.29695540667    -0.3343488276    -0.23276233673    
-0.33942726254    -0.32574671507    -0.27116063237    -0.26442721486    -0.22049382329    
-0.28730630875    -0.31333625317    -0.33154094219    -0.34081944823    -0.29246428609    
-0.24865736067    -0.3474381268    -0.20441767573    -0.18693882227    -0.29569122195    
-0.33162468672    -0.13476338983    -0.096805028617    0.036933004856    -0.03245934844    
0.03991298005    -0.011179689318    0.092651598155    0.033830851316    -0.13768592477    
0.21098193526    0.11557609588    0.11566399038    0.15766808391    0.33427661657    
0.41924566031    0.23493692279    -0.013419246301    -0.13240630925    0.24479758739    
0.18614409864    0.3339946568    -0.22344839573    -0.32050746679    -0.3104069531    
-0.35463994741    -0.1431285888    -0.23580853641    -0.19615125656    -0.33981567621    
-0.33797267079    -0.27071765065    -0.21770165861    0.337431252    0.30317646265    
0.19366455078    0.095074817538    0.32498046756    -0.12312694639    0.034904532135    
-0.24666310847    -0.13426069915    0.26247379184    0.15041914582    0.27890083194    
-0.23686516285    -0.15286615491    -0.25943410397    0.2703794539    0.034384440631    
0.10883488506    -0.04118507728    0.19725997746    0.15706507862    0.16764962673    
-0.12885555625    -0.087462089956    0.032193314284    -0.23437448314    -0.22919301689    
0.077206209302    0.19898495078    -0.33946800232    0.10168384761    0.2496945262    
-0.04975425452    -0.18743665516    -0.12804052234    0.27424177527    -0.14424198866    
-0.14361406863    -0.21119880676    -0.2402394712    -0.32929396629    0.27723261714    
0.29425120354    0.32784238458    0.28737694025    0.077900789678    0.13648201525    
0.011335023679    9.8228352726e-05    -0.025411091745    -0.023622816429    -0.13722740114    
-0.10608942807    0.057037685066    0.083878189325    0.16960006952    0.079051792622    
0.092493660748    0.028138827533    0.051468979567    0.14986515045    0.1277204752    
0.089858144522    0.30145633221    0.11585833877    0.21100731194    0.14475268126    
0.029059011489    -0.019574807957    0.15591920912    0.2590701282    0.13262072206    
0.23338773847    0.15730819106    -0.26889336109    -0.19837510586    -0.19645160437    
-0.16309058666    -0.20868697762    -0.089738331735    0.044982854277    -0.02923585847    
-0.021785223857    -0.089062400162    0.14505885541    0.1281991899    0.24076008797    
0.19546446204    0.14146855474    0.049275837839    0.021336633712    0.099765390158    
0.21671915054    0.16263964772    -0.089620292187    -0.093031041324    0.12223561108    
0.0158755593    -0.032366167754    0.079498335719    -0.047014314681    -0.22727786005    
-0.14509645104    -0.11982141435    -0.066529624164    -0.04713287577    -0.23286023736    
-0.22267621756    -0.23767915368    -0.11608843505    -0.12831155956    -0.24538828908    
-0.15811020136    -0.23917742074    -0.17523249984    -0.071546114981    -0.052821282297    
0.10625118017    -0.14788794518    0.36127585173    0.23631863296    0.27395620942    
0.2626427114    -0.097244560719    -0.18032833934    -0.12954746187    -0.27574142814    
0.23649072647    0.24469183385    -0.057597957551    0.23062975705    -0.19859114289    
-0.28449565172    0.25666350126    0.33016222715    0.31448689103    -0.046197623014    
-0.14662386477    -0.065843753517    0.02828043513    -0.16609786451    0.22022998333    
0.13536153734    0.10845112056    0.18599182367    -0.09914444387    -0.071007244289    
0.015071149915    0.25979170203    0.25330665708    -0.0086802467704    -0.074207119644    
-0.20950435102    -0.12250272185    -0.14882944524    -0.031658235937    0.0094026327133    
0.067133828998    0.12283967435    0.02622140944    0.1131433621    0.042061634362    
0.093645699322    0.09027723223    -0.21524465084    -0.18367117643    -0.22853043675    
-0.058467663825    0.12012530863    0.11529561877    0.247710675    -0.038092400879    
-0.10070315748    -0.099340446293    -0.23836529255    -0.27039843798    -0.14554896951    
-0.11940420419    -0.019795352593    -0.019804503769    -0.094810500741    0.2118780762    
-0.13248485327    -0.19018102103    0.13408590853    -0.094359830022    -0.073288328946    
0.040998559445    0.0025002514012    -0.1170893684    -0.062918752432    0.025678804144    
-0.045799732208    -0.024417564273    -0.23926316202    -0.12341775    0.1961221993    
0.068103633821    0.015170675702    -0.15145096183    -0.11430221051    0.13770031929    
-0.11792815477    -0.12434826791    -0.15042594075    -0.014718302526    -0.081871159375    
0.0036510885693    -0.058520920575    -0.43167236447    -0.0041930982843    0.17542864382    
-0.33809819818    -0.33518958092    0.19300557673    0.35791161656    0.44331139326    
-0.088265553117    -0.24312114716    -0.2607704401    0.43577221036    -0.16004104912    
-0.25979873538    -0.26683390141    0.28096622229    0.23233468831    0.26265394688    
-0.18621949852    0.18562467396    0.089362457395    0.12907977402    0.20268413424    
-0.19199290872    0.052900869399    -0.019950056449    0.0041586537845    -0.23460835218    
0.30142802    -0.11848574132    0.19189736247    
-0.41206894535    -0.5    -0.5    -0.5    0.40225554445    
0.5    0.5    0.5    -0.41485025007    -0.5    
-0.5    0.5    0.429596752    0.5    0.4165745512    
-0.5    -0.41283393872    -0.5    -0.5    -0.5    
-0.5    -0.4161304591    -0.5    -0.1    -0.14458893486    
-0.13364411811    -0.2    0.39969751098    0.5    0.5    
0.5    0.14405260991    0.13701722891    0.2    0.1    
0.33981467104    0.42960044238    0.4    0.42810857285    0.5    
0.5    -0.41729287326    -0.5    -0.5    -0.5    
-0.5    0.5    0.5    0.40021852449    0.5    
-0.5    -0.41665591559    0.41362215195    0.5    0.5    
0.5    0.39881754329    0.5    0.5    0.43123768753    
0.5    0.5    0.41478178965    0.5    -0.34419926426    
-0.4    -0.33776895241    -0.3    0.1    0.13700693754    
0.13330796726    0.2    0.0    -0.033580904265    -0.033153000017    
-0.5    -0.41472343476    -0.5    -0.5    -0.13555449361    
-0.2    -0.13365527251    -0.1    0.5    0.5    
0.41131431    0.5    -0.4168881557    -0.5    -0.5    
-0.33772571126    -0.33947356405    -0.4    -0.3    -0.3    
-0.33946267551    -0.33777949659    -0.4    -0.5    -0.41208065577    
-0.5    -0.5    -0.5    -0.43266810545    -0.23585693143    
-0.23367045597    -0.2    0.5    0.5    0.41021213387    
-0.41681834914    -0.5    -0.5    -0.13285262229    -0.13556582845    
-0.1    -0.41865150848    -0.5    -0.43069069151    -0.5    
0.5    0.5    0.39882630123    0.5    0.41188366054    
0.5    0.5    -0.5    -0.41728052302    -0.5    
0.3    0.3398221228    0.34313516485    0.4    0.42811273526    
0.41334446407    0.5    0.5    -0.5    -0.41392312726    
-0.5    -0.5    0.33703198141    0.3    0.5    
0.5    0.43198898891    0.5    0.41540583426    0.13852409406    
0.2    0.13329818812    0.1    -0.5    -0.41460392361    
-0.5    -0.41618175339    -0.5    -0.5    0.5    
0.41658102077    0.5    0.5    -0.035376344277    -0.033163526401    
0.0    0.41536299017    0.5    0.5    0.23276613717    
0.23984721179    0.3    -0.5    -0.24606052622    -0.23410098068    
-0.41486208818    0.5    0.33947748232    0.34029280491    0.3    
0.4    0.34081689785    0.33702374977    0.4    -0.41692207036    
-0.5    -0.5    -0.5    -0.5    -0.5    
-0.41889555576    -0.5    -0.41819843412    -0.41282405823    -0.5    
0.0    -0.035386706556    -0.031990237213    0.41357937384    0.5    
0.5    0.05250692366    0.23878142205    0.23802795747    0.2    
0.5    0.5    -0.5    -0.40321664073    -0.5    
-0.5    -0.5    0.051409269487    0.049220714793    0.5    
0.5    0.41059892718    0.5    0.5    0.41638409393    
0.5    0.5    0.13704872465    0.13647533199    0.1    
-0.42995180083    -0.5    -0.41564889515    -0.5    -0.5    
0.23841454726    0.24399143091    0.5    0.43123165166    0.5    
0.5    0.41261783441    0.5    -0.033454306713    0.0    
-0.034165135222    0.05080410852    0.051328268973    -0.41762424381    -0.5    
-0.5    -0.5    -0.4153699218    -0.5    -0.5    
0.5    0.41022239057    0.5    0.5    0.41476977044    
0.5    0.41058757882    0.432153258    0.5    0.5    
0.41627475889    -0.1    0.42790726717    0.5    0.42838880419    
0.5    0.5    -0.5    -0.5    -0.41820653554    
-0.43047637182    -0.5    -0.23584578721    -0.23411175976    0.5    
0.5    -0.13484758004    -0.13423285275    -0.2    0.051417074759    
0.055476597677    -0.43068598049    -0.5    -0.42995592938    -0.5    
-0.5    0.049213199433    0.415353217    0.5    -0.2351196651    
-0.23500892398    -0.3    0.42960306747    0.5    0.5    
-0.41728514716    -0.5    -0.5    -0.5    -0.4186464452    
-0.5    0.41335376528    0.5    0.5    -0.33893131854    
-0.33857438087    -0.4    -0.42996041333    0.42856487181    0.5    
-0.5    -0.41612026266    -0.5    -0.5    -0.5    
-0.41664445837    0.41664099952    0.5    -0.5    -0.41692620871    
-0.5    -0.43015589406    -0.42995449687    -0.5    -0.2691570305    
-0.28728654981    -0.25331445445    -0.33938811823    -0.33336120628    -0.17854612253    
-0.28406116366    -0.24610955706    -0.33691688491    -0.32665781431    -0.004451597045    