title = " tecplot file for process Mesh " 
variables = "x",  "y", "z", "cell_type" 
zone N = 135 E = 268 DATAPACKING = BLOCK,  VARLOCATION = ([4]=CELLCENTERED), ZONETYPE=FETRIANGLE 
0.000000e+00     
3.504530e-02     5.000000e-02     0.000000e+00     7.809667e-02     1.000000e-01     
4.826802e-02     0.000000e+00     1.275237e-01     1.500000e-01     4.224543e-02     
0.000000e+00     4.241831e-02     0.000000e+00     1.775394e-01     2.000000e-01     
2.277493e-01     2.500000e-01     4.270475e-02     0.000000e+00     2.778786e-01     
3.000000e-01     4.302612e-02     0.000000e+00     3.279603e-01     3.500000e-01     
4.312560e-02     0.000000e+00     3.780940e-01     4.000000e-01     4.269604e-02     
0.000000e+00     4.082723e-02     0.000000e+00     4.290599e-01     4.500000e-01     
4.103826e-02     0.000000e+00     0.000000e+00     4.843752e-01     5.000000e-01     
3.308939e-02     5.283147e-01     1.033148e-01     8.168447e-02     8.475184e-02     
8.491604e-02     8.566741e-02     8.615109e-02     8.599716e-02     8.443399e-02     
7.849405e-02     1.540885e-01     2.051809e-01     2.555644e-01     3.057996e-01     
3.556830e-01     4.050964e-01     4.533436e-01     5.380715e-01     4.958489e-01     
1.284570e-01     1.827028e-01     2.330869e-01     2.837797e-01     3.337692e-01     
3.832987e-01     4.317659e-01     1.261198e-01     1.277903e-01     1.289374e-01     
1.294192e-01     1.290086e-01     1.274456e-01     1.636300e-01     4.774755e-01     
5.234088e-01     2.103139e-01     2.624642e-01     3.119632e-01     3.617993e-01     
4.118317e-01     1.692048e-01     1.712962e-01     1.726296e-01     1.731112e-01     
1.732489e-01     4.612672e-01     2.125438e-01     2.469971e-01     2.899390e-01     
3.392150e-01     3.898250e-01     2.157922e-01     2.164303e-01     2.177527e-01     
4.426752e-01     2.614481e-01     2.189156e-01     2.583059e-01     2.613203e-01     
3.148335e-01     3.648203e-01     2.949442e-01     3.035964e-01     5.014941e-01     
3.382358e-01     4.163409e-01     2.635171e-01     2.651055e-01     3.081648e-01     
3.093086e-01     4.697922e-01     5.216942e-01     3.880932e-01     3.116635e-01     
4.410134e-01     4.931935e-01     3.558399e-01     3.523311e-01     3.555528e-01     
4.125360e-01     3.905382e-01     4.648011e-01     3.587848e-01     4.353659e-01     
4.872408e-01     3.986179e-01     4.057670e-01     4.030521e-01     5.105804e-01     
4.474414e-01     4.990265e-01     4.510646e-01     4.776945e-01     
1.000000e+00     
9.653978e-01     1.000000e+00     9.500000e-01     9.591499e-01     1.000000e+00     
9.200420e-01     9.000000e-01     9.570043e-01     1.000000e+00     8.690802e-01     
8.500000e-01     8.199933e-01     8.000000e-01     9.557907e-01     1.000000e+00     
9.555302e-01     1.000000e+00     7.702584e-01     7.500000e-01     9.555187e-01     
1.000000e+00     7.200506e-01     7.000000e-01     9.555384e-01     1.000000e+00     
6.693786e-01     6.500000e-01     9.554173e-01     1.000000e+00     6.182826e-01     
6.000000e-01     5.676443e-01     5.500000e-01     9.547906e-01     1.000000e+00     
4.825803e-01     4.500000e-01     5.000000e-01     9.510482e-01     1.000000e+00     
5.250917e-01     9.651173e-01     9.160554e-01     8.826597e-01     8.400161e-01     
7.910909e-01     7.410913e-01     6.902130e-01     6.382286e-01     5.842854e-01     
5.252822e-01     9.118493e-01     9.112024e-01     9.110454e-01     9.112501e-01     
9.111319e-01     9.108354e-01     9.099121e-01     9.199157e-01     9.045406e-01     
8.664056e-01     8.674161e-01     8.660579e-01     8.672297e-01     8.670942e-01     
8.666536e-01     8.664424e-01     8.131874e-01     7.633104e-01     7.126410e-01     
6.609250e-01     6.078781e-01     5.531581e-01     8.306418e-01     8.671792e-01     
8.692126e-01     8.175902e-01     8.238444e-01     8.235979e-01     8.227927e-01     
8.221272e-01     7.866428e-01     7.363855e-01     6.850658e-01     6.327463e-01     
5.796719e-01     8.230052e-01     7.618445e-01     7.840273e-01     7.807004e-01     
7.797191e-01     7.781046e-01     7.104273e-01     6.581366e-01     6.059870e-01     
7.777390e-01     7.370726e-01     5.533941e-01     6.831898e-01     6.323493e-01     
7.383609e-01     7.347833e-01     7.023747e-01     6.588338e-01     7.812629e-01     
6.929365e-01     7.325514e-01     5.807235e-01     5.281119e-01     6.089521e-01     
5.561979e-01     7.317086e-01     7.269527e-01     6.877857e-01     5.034326e-01     
6.860416e-01     6.824040e-01     6.405831e-01     5.842705e-01     5.324049e-01     
6.429600e-01     6.054063e-01     6.379650e-01     4.797882e-01     5.957828e-01     
5.876560e-01     5.609960e-01     4.587713e-01     5.110770e-01     5.350755e-01     
4.901646e-01     4.764498e-01     5.431305e-01     5.116107e-01     
0.000000e+00     
0.000000e+00     0.000000e+00     0.000000e+00     0.000000e+00     0.000000e+00     
0.000000e+00     0.000000e+00     0.000000e+00     0.000000e+00     0.000000e+00     
0.000000e+00     0.000000e+00     0.000000e+00     0.000000e+00     0.000000e+00     
0.000000e+00     0.000000e+00     0.000000e+00     0.000000e+00     0.000000e+00     
0.000000e+00     0.000000e+00     0.000000e+00     0.000000e+00     0.000000e+00     
0.000000e+00     0.000000e+00     0.000000e+00     0.000000e+00     0.000000e+00     
0.000000e+00     0.000000e+00     0.000000e+00     0.000000e+00     0.000000e+00     
0.000000e+00     0.000000e+00     0.000000e+00     0.000000e+00     0.000000e+00     
0.000000e+00     0.000000e+00     0.000000e+00     0.000000e+00     0.000000e+00     
0.000000e+00     0.000000e+00     0.000000e+00     0.000000e+00     0.000000e+00     
0.000000e+00     0.000000e+00     0.000000e+00     0.000000e+00     0.000000e+00     
0.000000e+00     0.000000e+00     0.000000e+00     0.000000e+00     0.000000e+00     
0.000000e+00     0.000000e+00     0.000000e+00     0.000000e+00     0.000000e+00     
0.000000e+00     0.000000e+00     0.000000e+00     0.000000e+00     0.000000e+00     
0.000000e+00     0.000000e+00     0.000000e+00     0.000000e+00     0.000000e+00     
0.000000e+00     0.000000e+00     0.000000e+00     0.000000e+00     0.000000e+00     
0.000000e+00     0.000000e+00     0.000000e+00     0.000000e+00     0.000000e+00     
0.000000e+00     0.000000e+00     0.000000e+00     0.000000e+00     0.000000e+00     
0.000000e+00     0.000000e+00     0.000000e+00     0.000000e+00     0.000000e+00     
0.000000e+00     0.000000e+00     0.000000e+00     0.000000e+00     0.000000e+00     
0.000000e+00     0.000000e+00     0.000000e+00     0.000000e+00     0.000000e+00     
0.000000e+00     0.000000e+00     0.000000e+00     0.000000e+00     0.000000e+00     
0.000000e+00     0.000000e+00     0.000000e+00     0.000000e+00     0.000000e+00     
0.000000e+00     0.000000e+00     0.000000e+00     0.000000e+00     0.000000e+00     
0.000000e+00     0.000000e+00     0.000000e+00     0.000000e+00     0.000000e+00     
0.000000e+00     0.000000e+00     0.000000e+00     0.000000e+00     0.000000e+00     
0.000000e+00     0.000000e+00     0.000000e+00     0.000000e+00     

0      
0      0      0      0      0      0      0      0      0      0      
0      0      0      0      0      0      0      0      0      0      
0      0      0      0      0      0      0      0      0      0      
0      0      0      0      0      0      0      0      0      0      
0      0      0      0      0      0      0      0      0      0      
0      1      0      0      0      0      0      0      1      0      
1      0      0      0      0      0      0      0      0      0      
0      0      0      0      0      0      0      0      0      0      
0      0      0      0      0      0      0      0      0      0      
0      0      0      1      1      0      0      1      1      0      
0      0      0      0      0      0      0      0      0      0      
0      0      0      0      0      0      0      0      0      0      
0      0      1      0      0      0      0      1      1      0      
0      0      0      0      1      0      0      0      0      0      
0      0      0      0      0      0      1      0      1      0      
1      0      0      0      0      1      0      1      0      1      
0      0      0      0      0      0      0      0      0      0      
0      0      1      0      0      0      0      0      0      0      
0      0      1      0      0      0      1      0      0      0      
0      0      0      1      0      0      0      0      1      0      
0      0      1      0      0      0      1      1      0      0      
1      0      0      0      0      0      0      1      0      0      
0      1      1      0      1      0      0      1      1      0      
1      0      0      0      0      0      1      0      1      0      
1      0      0      0      1      1      0      0      1      0      
1      0      0      0      1      0      0      0      0      1      
0      1      0      1      0      0      0      

1      2      3      
1      2      4      
2      3      5      
4      2      7      
2      5      7      
5      3      6      
5      6      9      
4      7      8      
8      7      11      
5      9      44      
9      6      10      
9      10      15      
8      11      12      
11      7      45      
12      11      13      
12      13      14      
13      11      46      
14      13      19      
9      15      53      
15      10      16      
15      16      17      
15      17      54      
17      16      18      
17      18      21      
14      19      20      
19      13      47      
20      19      23      
17      21      55      
21      18      22      
21      22      25      
20      23      24      
23      19      48      
24      23      27      
21      25      56      
25      22      26      
25      26      29      
24      27      28      
27      23      49      
28      27      31      
25      29      57      
29      26      30      
29      30      35      
28      31      32      
31      27      50      
32      31      33      
32      33      34      
33      31      51      
34      33      42      
29      35      58      
35      30      36      
35      36      40      
37      39      38      
37      39      42      
35      40      59      
40      36      41      
40      41      43      
34      42      39      
42      33      52      
37      42      52      
40      43      60      
7      5      44      
44      9      53      
7      44      45      
11      45      46      
45      44      62      
13      46      47      
46      45      62      
19      47      48      
47      46      69      
23      48      49      
48      47      70      
27      49      50      
49      48      71      
31      50      51      
50      49      72      
33      51      52      
51      50      73      
52      51      74      
53      15      54      
44      53      62      
54      17      55      
53      54      63      
55      21      56      
54      55      64      
56      25      57      
55      56      65      
57      29      58      
56      57      66      
58      35      59      
57      58      67      
59      40      61      
58      59      68      
40      60      61      
59      61      76      
61      60      77      
62      53      63      
46      62      69      
63      54      64      
62      63      75      
64      55      65      
63      64      78      
65      56      66      
64      65      79      
66      57      67      
65      66      80      
67      58      68      
66      67      81      
68      59      76      
67      68      82      
47      69      70      
69      62      75      
48      70      71      
70      69      83      
49      71      72      
71      70      84      
50      72      73      
72      71      85      
51      73      74      
73      72      86      
74      73      87      
69      75      83      
75      63      78      
68      76      88      
76      61      77      
78      64      79      
75      78      83      
79      65      80      
78      79      90      
80      66      81      
79      80      91      
81      67      82      
80      81      92      
82      68      88      
81      82      93      
70      83      84      
71      84      85      
84      83      89      
72      85      86      
85      84      94      
73      86      87      
86      85      95      
87      86      96      
83      78      89      
82      88      97      
84      89      94      
89      78      90      
90      79      91      
89      90      98      
91      80      92      
90      91      98      
92      81      93      
91      92      102      
93      82      97      
92      93      103      
85      94      95      
94      89      98      
86      95      96      
95      94      100      
87      96      99      
96      95      101      
93      97      108      
97      88      106      
94      98      100      
98      91      102      
99      96      109      
95      100      101      
100      98      104      
96      101      109      
101      100      105      
102      92      103      
98      102      104      
103      93      108      
102      103      107      
104      102      107      
100      104      105      
101      105      111      
105      104      107      
97      106      113      
107      103      115      
103      108      115      
108      97      113      
99      109      110      
109      101      111      
110      109      112      
105      107      119      
111      105      119      
109      111      112      
110      112      116      
112      111      120      
113      106      114      
108      113      117      
113      114      118      
107      115      119      
115      108      117      
116      112      121      
117      113      118      
115      117      122      
117      118      124      
119      115      122      
111      119      120      
112      120      121      
120      119      123      
116      121      125      
121      120      128      
122      117      124      
119      122      123      
120      123      128      
123      122      126      
122      124      126      
125      121      130      
123      126      128      
126      124      127      
121      128      130      
126      127      134      
128      126      134      
129      130      125      
129      130      132      
130      128      134      
132      130      134      
132      134      135      
134      127      131      
134      131      135      
133      135      132      
133      135      131      
3      1       3      
6      3       6      
10      6       10      
16      10       16      
18      16       18      
22      18       22      
26      22       26      
30      26       30      
36      30       36      
41      36       41      
1      4       1      
4      8       4      
8      12       8      
12      14       12      
14      20       14      
20      24       20      
24      28       24      
28      32       28      
32      34       32      
39      38       39      
34      39       34      
38      37       38      
37      52       37      
52      74       52      
74      87       74      
87      99       87      
99      110       99      
110      116       110      
116      125       116      
125      129       125      
129      132       129      
132      133       132      
43      41       43      
60      43       60      
77      60       77      
76      77       76      
88      76       88      
106      88       106      
114      106       114      
118      114       118      
124      118       124      
127      124       127      
131      127       131      
133      131       133      
