Title = " tecplot file for 2D Cavity problem " 
variables = "x", "y", "z", "velX", "cellCentroidY" 
Zone T = "nmesh0" N = 165 E = 468 DATAPACKING = BLOCK, VARLOCATION = ([4-5]=CELLCENTERED),  ZONETYPE=FETETRAHEDRON 
-0.33969382413    -0.33821104813    -0.3    -0.4    -0.2    
-0.23654934253    -0.23442631643    0.0    0.051788512588    0.048302279937    
0.1    -0.036539552942    -0.1    -0.032957545583    -0.13666224726    
-0.13378452454    0.13770463614    0.2    0.13218280363    -0.26415387702    
-0.22558563948    -0.17605371148    -0.23336877561    -0.27676409483    -0.33276963805    
0.075355291367    0.045580776326    0.054106608372    -0.075540573349    -0.12125059962    
-0.12233015178    -0.1658810894    -0.21442145109    -0.24401451815    0.018218039662    
-0.030118683353    -0.031523656171    -0.07705043303    0.075273913793    -0.081540942192    
-0.071421034468    -0.064321370558    -0.12862838805    -0.15441928309    -0.024988340214    
0.032099205532    0.12681150436    0.098131755548    0.089801393449    -0.013383025303    
-0.014308815683    0.060427083065    0.027520179138    0.071248449385    -0.30998492241    
-0.33065524837    -0.26108842105    0.10916212201    0.11208969134    0.011399649084    
-0.053748317046    -0.242702547    -0.18194536865    -0.24258606722    -0.14679513415    
-0.15645491866    -0.22906027462    -0.22041392326    -0.1710930563    -0.111761495    
-0.10732157528    -0.00076911469271    -0.17937526107    -0.1486280825    -0.058950658888    
-0.13780000806    -0.0092536676675    -0.16023084521    -0.17534734309    0.11961134523    
-0.030030202121    -0.082493901253    -0.3277609913    -0.29728317261    0.017661919817    
-0.076444171369    -0.093923687935    0.12949699163    0.02540740557    0.046723969281    
-0.15084071457    -0.21176297963    -0.22467558086    -0.19176098704    -0.2693310976    
-0.08715891093    0.043514356017    -0.1001540646    -0.083267346025    0.047332841903    
-0.041165109724    -0.12605653703    -0.32209268212    -0.16738939285    -0.12082306296    
-0.039546322078    -0.1325224936    0.06426165998    -0.17177045345    -0.19182032347    
-0.0067209075205    0.014297979884    0.040696881711    -0.03237491101    -0.049583990127    
0.033566184342    0.056703593582    -0.29695540667    -0.22049382329    0.077206209302    
-0.33946800232    -0.21119880676    -0.2402394712    -0.19837510586    -0.16309058666    
-0.19645160437    -0.20868697762    -0.14361406863    -0.089738331735    0.044982854277    
-0.0049792267382    -0.089620292187    -0.093031041324    0.0158755593    -0.032366167754    
-0.04975425452    0.079498335719    -0.089062400162    -0.047014314681    -0.11982141435    
-0.23286023736    -0.097244560719    -0.18032833934    -0.12954746187    0.13536153734    
0.021336633712    -0.031658235937    0.049275837839    0.042061634362    -0.21524465084    
-0.058467663825    -0.038092400879    -0.019795352593    -0.019804503769    -0.094810500741    
-0.04713287577    -0.12341775    0.015170675702    -0.11430221051    -0.15042594075    
-0.058520920575    -0.28730630875    -0.0041930982843    0.052900869399    -0.019950056449    

0.5    0.39881754329    0.5    0.5    0.5    
0.5    0.41021213387    0.5    0.43123165166    0.5    
0.5    0.5    0.5    0.41476977044    0.5    
0.41058757882    0.415353217    0.5    0.5    0.5    
0.41390678287    0.5    0.5    0.41851401329    0.5    
0.40556415915    0.5    0.33694749971    0.5    0.41362947226    
0.5    0.5    0.41201668978    0.5    0.5    
0.41021424532    0.5    0.5    0.5    0.41822323203    
0.5    0.32273088462    0.40041485429    0.5    0.41023689508    
0.5    0.42218753695    0.5    0.41237428784    0.40551966429    
0.5    0.14406319042    0.062263252802    0.035415314138    0.33604261279    
0.28281047204    0.32649983882    0.17826959491    0.23811814127    0.1096214503    
0.12253791368    -0.0030102295461    0.10182720423    0.10754402934    0.050669524734    
0.14726805738    0.22529098708    0.29028022289    0.31904986558    0.22792232241    
0.16590942442    0.23199266606    -0.003392345272    -0.057836333107    0.26088196039    
0.40203583241    0.35532894731    0.36799457669    0.39956691861    0.39421370625    
0.41147202253    0.4029161036    0.17298997537    0.12450686097    0.20442558825    
0.32958292961    0.43359217048    0.31126359105    0.32341533899    0.40195313096    
0.28139716387    0.33910441399    0.19135580957    0.3276937902    0.28304952383    
0.066371306777    0.28596025705    0.35140454769    0.27131479979    0.30761867762    
0.29751354456    0.3102992475    0.22808775306    0.30294573307    0.022327756509    
0.16369615495    0.23405236006    0.21694687009    0.30080643296    0.19964146614    
0.26174619794    0.29378727078    0.357855618    0.28397116065    0.18976834416    
0.1805921495    0.19606357813    0.40151166916    0.26186665893    0.32208579779    
0.28060570359    0.12184236199    0.046832572669    0.1916718781    0.16244494915    
0.22895142436    0.075854338706    0.047414053231    0.11402367055    0.24680477381    
0.29079681635    0.23688864708    0.34648191929    0.12777155638    0.076066583395    
0.0026446154807    0.12276419252    0.22432801127    0.34640035033    0.089447163045    
0.17948055267    0.20733335614    0.097218066454    0.11397588253    0.26129713655    
0.12662006915    0.097736671567    0.14738327265    0.024648226798    0.24710139632    
0.081637457013    0.16411808133    0.20059047639    0.20794272423    0.13191781938    
0.052678707987    0.14523732662    0.11158268154    0.19043906033    0.19724671543    
0.22169439495    0.18371337652    0.43022921681    0.18781583011    0.22286942601    

0.4035384777    0.5    0.5    0.5    0.5    
0.41486458384    0.5    0.5    0.5    0.43218772171    
0.5    0.41719225542    0.5    0.5    0.41462228214    
0.5    0.5    0.5    0.41553842165    0.33582110334    
0.35972952843    0.32850290629    0.24088832304    0.29022592306    0.29396832588    
0.39553371072    0.33887500709    0.5    0.14697752401    0.18341563642    
0.24184870647    0.16142068769    0.1786558032    0.13365839796    -0.044275085471    
-0.0060922489502    0.053796234592    -0.027797897199    0.045932745048    0.3870999217    
0.32948522844    0.5    -0.015183720738    0.052106558525    0.11474210024    
0.14345253318    0.075629703701    0.23504228926    0.17156606913    0.30274164677    
0.23986469613    0.5    0.5    0.41492205858    0.40507993102    
0.5    0.5    0.41238203645    0.5    0.40513393283    
0.5    0.5    0.40903988481    0.5    0.5    
0.5    0.5    0.41332420707    0.5    0.5    
0.41374370456    0.5    0.41109591722    0.5    0.40931418538    
0.29266831279    0.42102536559    0.41608563066    0.080442197621    0.285489887    
0.20950149    -0.10735099763    0.5    0.39659529924    0.41078492999    
0.33389627934    0.061294995248    0.12092830241    0.052092600614    0.24348624051    
-0.087195985019    0.0028856392018    0.40685939789    0.32722976804    0.28694593906    
0.41912767291    0.42958766222    0.11417367309    0.065062306821    0.31000220776    
-0.043345879763    -0.004823774565    0.41171085835    0.20952318609    0.35181468725    
0.35594251752    0.3300344646    0.086114391685    0.079299814999    0.017035059631    
0.10158551484    0.17785108089    0.1284172684    0.26147404313    0.27133256197    
0.1915037483    0.30612745881    0.20654162765    -0.0376653485    0.23009197414    
0.34185385704    0.30808600783    0.36249628663    0.11507255584    0.20235726237    
0.26062273979    0.19620914757    0.27146923542    0.23412257433    -0.034520238638    
-0.15602079034    0.16908699274    0.23705966771    0.26289540529    0.17086197436    
0.26697871089    0.35016521811    -0.15367992222    -0.13585554063    0.099740616977    
-0.08880661428    -0.031982798129    0.015550041571    -0.072570905089    0.18298453093    
0.052222408354    -0.07657096535    -0.047469347715    0.21341387928    0.3409306407    
0.3158211112    0.12354470044    -0.090027466416    0.023828176782    0.021488841623    
0.020682629198    0.31263998151    0.12526865304    0.085725553334    -0.097184307873    
0.099927298725    0.051262147725    0.38276821375    -0.11339323968    0.16025471687    

151.471924286    200.043728262    147.436210409    215.035966917    265.477432825    
179.06638952    219.076557307    179.055399719    187.002334329    126.051063436    
202.599611947    203.463390542    192.69234224    215.528991984    226.550190047    
270.807854667    173.701116232    254.314535536    250.651060769    209.05397555    
160.770154308    220.692181403    46.2053433825    70.7779523498    95.6976631175    
201.703277446    255.22160323    68.0462946393    68.2845689694    116.832453907    
73.7705789095    36.9463881574    26.0750203472    100.870838879    56.2684053751    
172.21688618    174.973967451    68.0295251535    95.329823587    50.0898635233    
32.4983733492    55.5864310559    47.8838579791    65.5645221785    34.876177006    
32.9189922692    76.7069057976    80.9442916171    61.0852791457    25.9482852507    
23.8230972259    40.0812413483    49.3669480082    48.2645236809    79.9952050585    
50.5310306026    48.0282477104    120.327258152    171.63607717    84.4280430227    
103.436768697    231.912644903    278.313192152    196.047535443    323.077245736    
308.894948426    302.716092059    26.5640193644    22.2489798462    44.4393726978    
36.7485096376    58.0067746333    38.2359495218    34.2430344977    54.5984064892    
64.2122361025    72.2335937507    56.4569459873    335.075627067    366.293595541    
353.734880827    310.725769307    267.384249337    380.960925634    388.003076021    
382.599653384    373.514747657    364.117876997    369.925908014    387.543746786    
393.29138445    392.569991822    389.960974737    384.130091378    386.605071073    
382.485854738    382.619019597    358.139310269    374.257875967    380.099705658    
371.7739386    321.014999627    352.982534702    348.921497305    384.212875846    
389.996187065    375.859726496    386.962428211    372.289622408    376.305034407    
384.94988287    395.2313126    386.164664713    333.876353278    353.830342029    
362.260278335    373.339446415    342.448953982    380.783100415    339.344153125    
360.294890032    361.621416197    168.957489193    94.7013994024    41.571943514    
146.963570787    44.0271590055    134.699412384    87.8683097062    166.58573449    
105.37871168    104.666599273    86.5570123793    169.805961006    353.18495223    
364.155678745    342.593289362    265.390121287    299.124134234    244.394402589    
246.358113578    297.984165383    309.009461424    360.917052963    309.971859784    
255.279467539    280.199722887    334.789320954    358.211844649    358.739753069    
249.185854598    209.38271488    194.681007812    201.172397401    44.2377009218    
33.3866414754    140.558009386    65.2193898954    123.145990989    135.460483028    
104.514382219    73.9711854397    68.4037494682    68.4706222177    25.4624558707    
47.7019885733    28.3938796496    66.9583604295    71.6996737423    62.6085735989    
108.952080431    118.851192007    66.4171848246    60.2815468366    371.984720347    
385.502019321    375.272952538    388.196462029    357.380335226    339.345249842    
350.31591339    370.893399825    356.090591058    351.337782584    215.166736638    
283.139286589    263.21438651    208.99335872    171.153146738    67.4458500027    
115.419831942    39.4307642283    92.6219500873    20.0412388221    101.553486932    
11.2070639449    15.6548723354    104.477036903    111.860567368    164.84905262    
29.851666509    32.5821491226    60.2470537498    80.2678011819    119.307380658    
47.8538703349    391.468629301    390.781283562    385.303803807    381.136995346    
379.068445106    377.428674371    361.60984244    380.532780754    386.300844806    
373.719176522    353.574009309    378.091444886    366.497912139    339.928128712    
219.45228221    176.652648498    234.464377168    275.624015651    208.195851352    
285.529360655    293.922475944    274.817432368    257.631517416    207.035543673    
376.367727822    392.826605538    359.744282689    296.592830564    381.333369242    
284.353327423    386.104459519    322.535751632    127.185039359    128.51514324    
141.164740903    148.949958467    172.563782199    161.757540465    144.570675475    
132.698427263    138.630865021    145.355530695    127.714246095    297.833705267    
286.267561298    264.765537213    226.931240506    214.393075152    195.156589503    
156.961762634    131.689020527    149.671606308    185.377993273    138.015292929    
175.169711559    203.551175388    134.687090027    156.035573607    154.168293968    
200.902287137    163.081433564    326.866932098    388.181146668    340.828740303    
149.424018859    201.792590893    360.521961169    374.498710474    341.136334812    
323.862254803    297.611661506    329.930730578    293.580399184    286.474123398    
292.583157872    272.503969638    232.763748816    341.025553996    329.07264039    
216.794703986    203.380726893    152.431777668    194.316956452    165.50955338    
199.930368373    164.676898187    214.116722671    232.137161741    223.060931614    
216.658645139    198.574842749    207.795303592    181.800092516    189.343021042    
218.858213957    231.155109022    163.533935716    199.312866055    203.785962667    
170.773266809    179.828854294    144.779998197    152.271002402    194.663543469    
115.728124639    159.155366475    130.275498151    98.0851698834    148.372639315    
150.092152179    172.522069235    160.927710381    192.573891732    168.966416278    
176.692662426    188.604947103    240.308065677    166.26403128    215.63752462    
223.89021285    203.274245685    239.142856643    304.228495238    323.612842169    
350.494234881    367.337486063    364.943980698    357.496041397    331.545542452    
334.47482431    330.738868436    320.854608382    328.468758176    227.74982682    
192.479199759    218.718020595    219.302846662    190.470008196    258.668026962    
264.740949845    274.916323454    291.881156569    243.771690336    298.808290332    
282.439070608    301.471607362    283.843303472    157.575474592    193.79415297    
210.470844837    165.069336432    231.744987645    330.786213012    310.948688199    
311.784928329    303.174271446    305.236323665    334.494148698    334.37278589    
294.584917048    323.344132105    333.023112293    191.242533725    214.569650122    
303.318413595    237.310870728    246.865538448    234.666950358    226.669697511    
215.035410231    238.589435615    284.233901954    288.650847176    277.935208459    
293.663353641    235.678666861    237.846964838    241.492930122    341.721408413    
337.050205686    326.238041913    326.969611013    324.689662008    310.398787996    
291.869344176    293.137152619    310.912153987    302.190112335    279.007207034    
230.356838516    248.883400055    214.966146147    225.383759356    210.725159572    
224.343898015    266.550508391    273.035269369    279.224540412    264.404708658    
248.465026832    266.896886601    248.008478355    201.29379899    239.548121556    
217.888917244    246.295598395    224.964157646    272.007990363    277.671809945    
281.316699303    242.914419744    246.964521186    289.196831915    299.498659485    
292.866307829    306.74305586    277.578393651    299.697215782    267.786332819    
257.382268843    273.533304049    261.136031305    267.808390735    279.709859307    
310.944548714    311.111731542    349.659468633    351.490858653    317.083840107    
317.421905026    335.321630465    355.519199662    348.50404277    350.455616312    
292.981049652    281.809748668    294.585169966    292.840115577    244.404487006    
270.999574913    276.276977528    240.151826103    255.202584742    238.70395679    
233.714571321    260.843387633    250.81584706    254.168424972    248.720674162    
242.605539959    232.326517079    244.410375061    272.086608998    196.331874654    
115.551268035    193.588217829    240.949336911    42.6005166046    93.9493572377    
33.542259394    260.638015415    264.129509434    
0.473184182715    0.473682442186    0.476491648681    0.476890917248    0.452007769212    
0.449984049072    0.430402298977    0.463598535625    0.482815619744    0.482268843024    
0.457312270104    0.478222631192    0.459491914319    0.455529330835    0.477011904122    
0.455054006596    0.453883508112    0.423951053182    0.461085919692    0.478446929996    
0.457563797753    0.438877202206    0.477703903768    0.477573304367    0.457809624181    
0.414621367521    0.390092849227    0.458064810797    0.477798797593    0.455752604943    
0.453462806389    0.479017122618    0.479273561152    0.434207832886    0.478896432523    
0.418060799155    0.441769897851    0.475256309493    0.459412027794    0.457011139366    
0.477883656141    0.456225540352    0.460478897916    0.452227091398    0.477234919637    
0.477391938788    0.431467123059    0.432323866381    0.451469998294    0.477008393899    
0.47700553543    0.460745053736    0.452400626426    0.453863942073    0.454624864173    
0.479114009753    0.479537347694    0.433624906065    0.426853581587    0.462920951894    
0.478990539331    0.425332067632    0.435873925156    0.4404002687    0.391570787667    
0.379091583507    0.378433098855    0.476951974709    0.477409062744    0.45620913006    
0.461474407364    0.438375643489    0.475344545379    0.476232408734    0.453884780074    
0.460473670092    0.450518422894    0.454643348422    0.368171859323    0.337282460198    
0.308683551812    0.360205515567    0.381421350642    0.145318877862    0.110308058961    
0.0883384350376    0.116996167848    0.111009198322    0.158406816128    0.0613389327227    
0.0639041136944    0.101238793748    0.0368524000028    0.137646908495    0.0918569896761    
0.289408276612    0.264795237915    0.274365094572    0.234073655778    0.279617985682    
0.256830631014    0.331743594324    0.28393208615    0.326208305803    0.125157634878    
0.165694766972    0.183711957535    0.186990378943    0.221323096451    0.180551418046    
0.0535014658249    -0.0033544565589    0.0357256070024    0.239179570709    0.238214555953    
0.219944303855    0.28270386186    0.317047229105    0.260775894694    0.307266217756    
0.276047713397    0.214599181224    0.390265244991    0.431870851183    0.474588211835    
0.383682311203    0.474641629464    0.381181483204    0.432040284268    0.389491233273    
0.43113753639    0.439579202493    0.430551527715    0.400976467709    0.325194151856    
0.357206619492    0.383688499455    0.408528426032    0.382560714612    0.40581130475    
0.404764401744    0.364940203754    0.287885812759    0.354743020626    0.327602293195    
0.366252972382    0.329574780748    0.305337904629    0.377063345313    0.356945340488    
0.360012404037    0.425332897609    0.378396549261    0.379092661309    0.45879425812    
0.473489480573    0.380052374645    0.437491321258    0.394467582199    0.392193064331    
0.399050328158    0.433600775736    0.433688875714    0.435971756342    0.477710410725    
0.454636204527    0.4776304429    0.434439961538    0.431075368381    0.439267215889    
0.396595788949    0.380313618637    0.428954614152    0.436930149363    0.239764945187    
0.204628348695    0.191651652079    0.174386625684    0.226849292184    0.19946365796    
0.246308887139    0.151090881985    0.160853200929    0.154197999351    0.356931314527    
0.298792557727    0.313206894235    0.37705899557    0.371636340829    0.433508537931    
0.384643048743    0.459367254975    0.402953755202    0.483335095673    0.400291821599    
0.484555592773    0.484040919467    0.400506337151    0.387613787186    0.372239854731    
0.474853501455    0.475151955293    0.451074646005    0.428833304793    0.395325024701    
0.455421169925    0.167743991562    0.173566347778    0.14950576705    0.20425940348    
0.130778330358    0.178917972289    0.134417860174    0.0956876015566    0.198242716949    
0.15244256704    0.151795441377    0.119937721341    0.234343687021    0.220815615608    
0.371413563172    0.363444132895    0.342917119387    0.309333854876    0.334700747804    
0.288273008647    0.297125940028    0.331886622042    0.314608613402    0.350289943248    
0.047595757106    0.0970050357951    0.11938798517    0.266174124549    0.294721954263    
0.301956635354    0.27236644894    0.216249775035    0.373457272903    0.372971200389    
0.359169776283    0.340928979011    0.304270980239    0.325902738954    0.339609752732    
0.38142796413    0.379829904189    0.36590797887    0.371703390375    0.249350970214    
0.264137567261    0.294622425435    0.3490215121    0.3326403083    0.275945383378    
0.324548521921    0.363020822258    0.333489938224    0.298351375964    0.349335872019    
0.309073128311    0.270433123493    0.356776813627    0.338301417357    0.32532675931    
0.273276902097    0.32947252615    0.283139337707    0.227426116807    0.239283467061    
0.366958920397    0.348574680175    0.0857348876298    0.04274949083    0.150782443834    
0.207238125476    0.230865168397    0.177846355086    0.236368149711    0.303513891984    
0.275802690129    0.275453418582    0.309102062313    0.184161554243    0.240179718113    
0.268405519204    0.289191777162    0.341093585156    0.301954844887    0.337878595928    
0.297199440349    0.352324075681    0.268477121317    0.240469677028    0.246119198507    
0.252143838263    0.279690064862    0.272482052305    0.312469252275    0.305396097191    
0.269876453466    0.248437667835    0.324708540109    0.280717136162    0.266143357324    
0.317945349803    0.321128808239    0.354588487785    0.354728964806    0.287335986783    
0.380309455068    0.349638036386    0.37566376969    0.402449998287    0.372198251324    
0.366043552905    0.346682033163    0.345569151076    0.342542074006    0.361672964274    
0.334712673493    0.32585047593    0.296898462275    0.380780328839    0.264042588472    
0.245488974132    0.297387762041    0.267505993798    0.276117404025    0.261599617375    
0.140883711811    0.0999997205457    0.0725731965495    0.0962140931804    0.119155902956    
0.102573081493    0.0994722096605    0.108763904996    0.117425137808    0.250229019195    
0.309267831975    0.249184744294    0.255454643449    0.30757754847    0.233491204967    
0.236834833375    0.222488636711    0.219733056053    0.273107010509    0.199495999924    
0.205211742585    0.182143318947    0.18655900569    0.352740004946    0.343707802982    
0.289742146778    0.349396500075    0.260812364156    0.0789501641947    0.124742337631    
0.124266281822    0.134794674462    0.15301365901    0.0814354771418    0.0583665232098    
0.161802713326    0.1279647673    0.17633480446    0.287167986649    0.252740287707    
0.132469540859    0.236884467841    0.216756936171    0.228564845397    0.233606528446    
0.247063725288    0.217380783126    0.136951936033    0.148187536541    0.172077845528    
0.163729974174    0.261434301756    0.238547462977    0.228974268214    0.0609283598265    
0.0966277293984    0.139989497471    0.144906734823    0.132875820355    0.111619379094    
0.150920183313    0.159399879941    0.109653866202    0.134330955354    0.188287751697    
0.228976270935    0.207424161271    0.254492921637    0.234105737597    0.259779477489    
0.23816671355    0.178837346651    0.154760448103    0.137650864263    0.176794933419    
0.200169804862    0.163735177978    0.196435488951    0.269930239497    0.218742629957    
0.249853114331    0.211290711596    0.240583995427    0.159679765533    0.144671663856    
0.139689321625    0.213269883826    0.215254481492    0.14320585552    0.109940813676    
0.119437893665    0.10191838906    0.157255300753    0.112152114019    0.173717214873    
0.185227007843    0.163071856599    0.183079031386    0.178988665275    0.155372164467    
0.15394768493    0.183955160988    0.113815567409    0.133632580943    0.182761924621    
0.164773440229    0.17436285467    0.0799253066704    0.0747766441555    0.084637882553    
0.127146724395    0.168104506087    0.141240258671    0.156735448573    0.222449582875    
0.195491998241    0.18754746034    0.232337755466    0.202893980767    0.222589470001    
0.23052391896    0.209348692649    0.230154959609    0.195039814607    0.21144666573    
0.217539358276    0.235980181646    0.246121182369    0.202191830063    0.397599052595    
0.436127485197    0.400999429176    0.44389176334    0.482694566848    0.481912735269    
0.483250409213    0.195951647684    0.220076209999    
1     2     3     6     
3     2     1     4     
5     6     7     15     
7     6     5     3     
3     7     6     2     
1     2     6     21     
7     6     2     21     
8     9     10     163     
10     9     8     11     
11     10     9     19     
12     13     14     40     
14     13     12     8     
12     14     8     163     
13     15     16     40     
16     15     13     5     
5     16     15     7     
7     15     6     21     
16     15     7     78     
17     19     11     9     
11     19     17     18     
9     19     10     26     
17     19     9     26     
20     21     6     22     
6     21     20     1     
1     21     20     24     
1     2     21     55     
2     7     21     55     
20     21     22     24     
6     22     21     15     
22     21     15     40     
23     24     22     76     
22     24     23     20     
20     24     23     25     
22     24     21     76     
25     20     24     1     
1     21     24     55     
10     9     26     163     
10     26     19     27     
10     26     27     163     
29     30     31     81     
31     30     29     32     
32     31     30     33     
32     30     29     87     
31     33     23     76     
23     33     31     32     
32     23     33     34     
32     33     30     79     
31     30     33     76     
34     33     32     79     
35     36     37     39     
37     36     35     38     
38     37     36     87     
38     36     35     82     
37     39     36     45     
22     40     41     76     
41     40     22     15     
15     41     40     12     
21     40     22     76     
15     40     21     78     
41     40     12     163     
15     12     40     13     
16     40     15     78     
13     40     16     14     
12     40     14     163     
14     40     16     42     
42     40     16     78     
14     40     42     77     
37     45     46     39     
46     45     37     29     
29     46     45     81     
29     45     37     87     
37     45     36     87     
41     50     51     31     
51     50     41     27     
27     51     50     90     
27     50     41     163     
31     41     50     76     
31     50     51     81     
57     2     55     7     
55     2     57     56     
57     55     56     68     
7     55     57     78     
7     21     55     78     
52     61     60     85     
60     61     52     53     
52     60     53     54     
52     60     54     58     
58     60     54     137     
52     60     58     85     
62     63     64     123     
64     63     62     65     
65     64     63     66     
65     63     62     73     
66     64     63     93     
66     63     65     96     
67     68     69     57     
69     68     67     70     
70     69     68     75     
70     68     67     93     
67     68     57     56     
56     67     68     103     
55     68     57     78     
56     68     55     103     
69     57     68     78     
61     71     66     96     
66     71     61     70     
70     66     71     93     
70     71     61     72     
72     70     71     75     
72     71     61     85     
63     73     65     96     
62     65     73     74     
62     73     63     123     
71     75     68     107     
68     75     71     70     
70     71     68     93     
69     75     70     42     
42     69     75     78     
42     75     70     72     
68     75     69     78     
42     75     72     97     
72     75     71     85     
21     76     24     94     
23     24     76     33     
23     76     22     31     
24     76     33     104     
22     31     76     41     
33     76     30     104     
31     30     76     81     
50     76     40     86     
40     76     50     41     
41     50     40     163     
31     76     50     81     
21     40     76     78     
28     77     42     97     
42     77     28     14     
14     77     28     9     
14     77     9     163     
28     9     77     26     
9     77     26     163     
40     77     14     163     
42     77     40     78     
75     78     68     107     
42     69     78     16     
42     78     75     77     
40     78     77     86     
77     78     75     86     
42     77     75     97     
69     78     16     7     
7     78     57     69     
21     55     78     94     
21     78     7     15     
21     78     76     94     
40     76     78     86     
44     79     32     87     
32     79     44     34     
30     79     33     104     
32     79     30     87     
76     81     30     133     
50     81     76     133     
45     81     49     113     
49     81     45     46     
46     49     81     90     
46     45     49     47     
46     81     29     51     
51     46     81     90     
51     81     29     31     
29     81     45     30     
51     81     50     90     
30     45     29     87     
30     81     45     98     
36     82     43     102     
43     82     36     38     
38     36     43     87     
72     85     59     97     
59     85     72     52     
52     59     85     58     
52     85     72     61     
59     85     58     97     
71     85     75     106     
72     75     85     97     