Title = " tecplot file for 2D Cavity problem " 
variables = "x", "y", "z", "velX", "cellCentroidY" 
Zone T = "nmesh0" N = 160 E = 467 DATAPACKING = BLOCK, VARLOCATION = ([4-5]=CELLCENTERED),  ZONETYPE=FETETRAHEDRON 
-0.13552710118    -0.14568896865    -0.23575467071    -0.2    -0.1    
-0.035402467434    -0.047222460383    0.050223418972    -0.068697194278    -0.0092070130631    
-0.17413212761    -0.22436501086    -0.263208228    -0.23238664304    -0.27598884702    
-0.16503904625    -0.21457947791    -0.11743831635    -0.11857869927    -0.0798689574    
-0.068677297262    -0.090018058647    0.10141577572    0.10382794224    0.15019595875    
-0.0081998756346    -0.0096004065126    0.048075954435    0.099135915325    0.096038199961    
0.13554979869    0.053428890811    0.0048525476329    0.0098382532597    -0.02876667971    
-0.1486280825    -0.18488626182    -0.2427204482    -0.16331023844    -0.30079066753    
-0.23927073798    -0.12861982796    -0.17706693709    0.027520179138    0.011399649084    
-0.053748317046    0.071248449385    -0.30063694715    -0.060991029216    0.0074519892223    
0.057757489939    0.025589508627    -0.14679513415    -0.17937526107    -0.41490575671    
-0.40753334761    -0.40986120701    -0.40545964241    -0.16532303393    -0.1905174493    
-0.16084399819    0.073977522552    0.10164710879    -0.029528370127    -0.093885757029    
0.00073439249536    -0.31226351857    -0.072128616273    0.084975063801    -0.042051788419    
-0.10732157528    -0.3158608377    -0.33769670129    -0.28339850903    -0.22941367328    
-0.34318292141    0.045684359968    -0.33235824108    -0.24915324152    0.094177126884    
-0.08715891093    -0.047226355567    -0.089128628373    -0.24107302725    0.031862605363    
-0.20621149242    -0.29911604524    -0.27456402779    -0.20082744956    -0.078038915992    
-0.056873571128    -0.092446729541    -0.19577488303    -0.061174482107    -0.30310287634    
-0.33568501472    -0.098757520318    -0.026364712045    -0.12949573994    -0.12082306296    
-0.039546322078    0.03918877244    -0.29246428609    -0.23312325776    -0.3474381268    
-0.20441767573    -0.13476338983    -0.096805028617    0.036933004856    -0.03245934844    
0.03991298005    -0.011179689318    0.092651598155    0.033830851316    -0.13768592477    
0.11566399038    0.17613555491    -0.013419246301    -0.23437448314    0.10168384761    
-0.04975425452    -0.18743665516    -0.12804052234    -0.14424198866    -0.14361406863    
0.077900789678    0.028138827533    0.051468979567    0.0158755593    0.079498335719    
-0.066529624164    -0.12831155956    -0.24538828908    -0.071546114981    -0.052821282297    
0.10625118017    -0.14788794518    -0.046197623014    -0.16609786451    0.015071149915    
-0.0086802467704    -0.058467663825    -0.11940420419    -0.19018102103    -0.15811020136    
-0.094359830022    -0.073288328946    0.0025002514012    -0.062918752432    -0.045799732208    
0.042061634362    -0.024417564273    -0.11792815477    -0.12434826791    0.0036510885693    
-0.33809819818    -0.2607704401    -0.18621949852    0.0041586537845    -0.11848574132    

-0.5    -0.41208065577    -0.5    -0.5    -0.5    
-0.5    -0.41486208818    -0.5    -0.5    -0.40289950371    
-0.5    -0.41281157732    -0.5    -0.5    -0.40747857094    
-0.5    -0.41370663047    -0.40743523836    -0.5    -0.41088786721    
-0.5    -0.32515165815    -0.40612122416    -0.5    -0.5    
-0.5    -0.40420889854    -0.5    -0.33611266694    -0.28295254707    
-0.249083151    -0.26366178696    -0.33351694239    -0.27894175053    -0.23964649146    
-0.057836333107    -0.10745344311    -0.11206135244    -0.15246265199    -0.21857130527    
-0.2256248161    -0.23243690152    -0.20350812376    0.062263252802    0.1096214503    
0.12253791368    0.035415314138    -0.11567308009    -0.13304965671    -0.12737318873    
-0.1695197161    -0.079550209737    0.050669524734    -0.003392345272    -0.21656090021    
-0.29863846302    -0.16469444335    -0.11893348396    -0.41093692183    -0.32145904978    
-0.36317887902    -0.42497992516    -0.40012854338    -0.41277977824    -0.42418280244    
-0.37224984169    -0.40374770761    -0.19458571076    -0.18677288294    -0.010382949375    
0.16590942442    -0.32092088461    -0.36072266102    -0.27121648192    -0.28948011994    
-0.30869972706    -0.31761169434    -0.24754928052    -0.17014044523    -0.10807587951    
0.066371306777    -0.006048885585    -0.097862228751    -0.06353725493    0.051580730826    
-0.29430642724    -0.3408729732    -0.22237314284    -0.3187790215    -0.31538873911    
-0.27542617917    -0.37738835812    -0.32195004821    -0.3252928257    -0.14423176894    
-0.19829428196    -0.024031469598    -0.097555346787    -0.17197673023    0.022327756509    
0.16369615495    -0.037219654769    -0.086417846382    -0.072664380074    -0.24254579842    
-0.24145521224    -0.32122588158    -0.29029551148    -0.32322400808    -0.32711231709    
-0.27410635352    -0.3218523562    -0.32291978598    -0.18507558107    -0.32231086493    
-0.31831282377    -0.29557338357    -0.23916488886    -0.2038089725    -0.18898910284    
0.0026446154807    -0.23401971161    -0.24116706848    -0.068703122437    0.047414053231    
0.0080390023068    0.02280225046    -0.082342945039    0.12777155638    0.12276419252    
-0.0587884821    -0.25626853108    -0.16637940657    -0.16516906023    -0.21266616881    
-0.23511433601    -0.27982017398    -0.24319313467    -0.13821902871    -0.20733688772    
-0.092203900218    0.081637457013    -0.23011241853    -0.17886283038    -0.16424137354    
-0.070242129266    -0.18226191401    -0.27010452747    -0.037860002369    -0.13083967566    
0.024648226798    -0.02158492431    -0.11811682582    -0.23039861023    -0.10164608061    
-0.33556306362    -0.35306036472    -0.2027105391    -0.19605831802    -0.16018170118    

0.41387018658    0.5    0.41442177303    0.5    0.5    
0.41677370705    0.5    0.13731343842    0.13650920358    0.11928126216    
0.32721282985    0.35906100273    0.33554839985    0.24083079202    0.29017758369    
0.16131149801    0.17940241098    0.17871151865    0.23831385826    0.38608124852    
0.32759987319    0.5    0.17772006989    0.23903066386    0.1568161242    
0.23586175998    0.30085864663    0.33911429504    0.5    0.42297139764    
0.5    0.5    0.5    0.41858780384    0.5    
0.5    0.4218134582    0.5    0.5    0.41720235348    
0.5    0.5    0.40948286653    0.5    0.40513393283    
0.5    0.41492205858    0.41369006038    0.5    0.39857259393    
0.5    0.5    0.5    0.41109591722    0.17814914882    
0.24282771349    0.27060064673    0.17494806647    0.27216950059    0.5    
0.41577538848    0.094609223306    0.28946328163    0.20995981991    0.091885209084    
0.41463178396    0.40589597821    0.41507530212    0.40738597512    0.36995971203    
0.41374370456    0.15575273335    0.23759411275    0.29248830676    0.41278365254    
0.40931478143    0.065575197339    0.2142534256    0.32927832007    0.31131532788    
0.41912767291    0.5    0.39003032446    0.34509626031    0.30914595723    
0.20130155981    0.063413895667    0.075111486018    0.082229703665    0.4012170732    
0.1706430316    0.30649361014    0.31692281365    0.066784948111    0.19516539186    
0.3139936626    0.43335348368    0.28269585967    0.30040669441    0.35181468725    
0.35594251752    0.33446398377    0.29045191407    0.24105484784    0.12425024062    
0.12834770977    0.14789235592    0.3097256124    0.17034308612    0.25056269765    
0.28136381507    0.33971264958    0.33961439133    0.32316887379    0.36044147611    
0.23589520156    0.31063428521    0.087443321943    0.24158235897    0.2219312489    
0.26697871089    0.32667097449    0.22994162142    0.30619335175    0.27146923542    
-0.16998247802    -0.050664272159    -0.057664580643    0.26289540529    0.35016521811    
-0.029195344076    0.071087941527    0.13299069363    0.20097199082    0.32793805003    
0.33583557606    0.43275335431    -0.011554532684    0.21756884456    0.17704497278    
-0.14223906398    0.3158211112    0.36438843608    0.18471531557    0.12483026832    
0.21636866033    0.11546137929    0.21634921432    -0.10979653895    -0.07355145365    
0.21341387928    0.15856590867    0.16571289301    0.15176047385    0.19533498585    
0.3235745132    0.20444226265    0.064372561872    0.26334768534    0.052078723907    

399.367310898    399.757703223    399.869673593    399.523791249    399.448176368    
399.419513768    399.136064109    398.716210017    399.246886485    398.822379863    
399.169392437    398.392210567    398.761123168    397.952736431    397.602170332    
398.380675956    397.62084028    396.89838939    398.809330064    399.26836253    
399.496925872    398.49559388    398.717138877    397.987289245    399.66286947    
398.59719999    399.492670462    399.568793749    398.915884243    399.207497204    
399.258835719    398.730545807    399.026967644    398.542519048    398.65073229    
397.569225062    397.315110865    397.493384571    398.810978851    399.20102612    
399.189647367    398.063709629    398.112239535    397.964659405    398.918357167    
399.130300354    397.548922528    397.900992968    398.40512204    397.665900029    
396.581073456    396.349957409    397.545612554    394.470363417    397.619781929    
395.780751942    398.043208227    398.433652173    397.969656062    396.484504562    
395.294350516    396.872835826    396.715895945    394.070637074    393.244877359    
392.63138966    390.563725297    396.964173004    397.406185305    395.993741301    
395.984779822    393.69843258    396.32069653    394.279479654    398.097881722    
398.893459251    398.038710221    396.415624656    397.643077453    398.882648248    
399.460756357    398.345429264    397.465455234    392.890761637    395.915407797    
396.192810487    398.776214843    396.584416887    396.370141129    393.89100279    
394.060953617    397.910366787    398.799952979    398.6759368    396.157984165    
396.049736259    393.642440369    397.488351452    395.911196194    391.814382816    
392.656816591    397.382291398    395.72759483    398.353411992    396.539486587    
391.639135986    394.325232656    395.497929615    394.70794535    398.321539071    
397.898427832    395.432268777    396.328785502    394.040881991    397.354624841    
393.468391243    398.51403555    397.801289111    393.442742438    391.14920678    
366.971221003    379.121317833    379.790088588    394.143003631    395.751750163    
395.340053841    396.176143241    397.302444266    394.368899039    390.35187296    
393.49159749    393.420412026    393.205087681    394.478639912    394.469036014    
393.77488535    393.630312183    393.788318501    395.500961892    393.714100874    
387.38624926    387.522658608    392.265541277    392.595353865    359.937508385    
372.970230956    383.697306817    387.223933839    387.242855244    393.211008123    
363.773248649    396.129611501    392.580426393    389.056158221    392.882621897    
396.194633051    395.186860079    391.761946868    383.396382719    386.249178196    
359.789999167    359.184058174    369.207808064    394.544407167    393.652652037    
393.409883522    390.541681993    389.942610937    389.123587464    395.617483537    
398.557280654    398.978462928    396.427223745    393.229781657    396.486216006    
398.064698164    397.166642424    390.947478727    391.418184532    391.598052467    
396.889179242    393.490315496    398.024811913    394.485977221    398.551387523    
395.988894018    396.141325678    395.444045513    389.922173507    388.696497536    
389.692153424    389.242716243    388.080644457    392.683165987    388.724253522    
389.64035458    392.706820221    395.797649028    389.987016867    395.182713157    
390.522945782    391.791658019    396.983147594    386.406636997    380.828828073    
380.254771525    398.245247732    397.330744655    393.180823681    391.103442003    
387.439832836    381.790835893    383.145155145    387.896194966    381.161829954    
378.529082474    384.207835417    375.84114562    388.75536553    384.203849611    
388.310317357    389.119896389    384.356268718    376.322928614    379.933421523    
364.336926559    355.030071853    361.915855368    381.240802337    379.536925599    
382.682947484    386.186092787    386.641096925    388.829508154    386.608259509    
389.038795817    387.095445682    389.63677723    386.223368191    390.203828113    
391.520323413    387.79076477    388.594143028    391.586118537    385.416381906    
386.317980563    392.337378654    386.535262489    391.130980576    391.561160738    
392.755156698    392.660085797    389.723751403    391.220110516    392.684508141    
392.946239554    392.67249468    390.617725611    388.690275901    388.798421572    
390.901472571    385.543386215    385.529520435    393.036725779    393.209609075    
392.080597102    393.786957046    393.952705414    388.154317438    389.451766312    
392.704525902    392.03660615    388.587678142    392.848273202    395.012419707    
390.806084017    393.977143445    395.581740641    394.378868095    392.413986623    
390.358559287    393.916797934    395.999152143    395.58306877    393.107982727    
392.246197898    391.244198126    393.542786854    392.581648213    383.879124517    
381.483361814    379.154702378    386.561165291    391.173978685    390.295495029    
387.133883443    392.895018448    393.940609699    396.174877465    393.26702759    
396.698502325    397.0677426    391.891618395    389.609243494    389.527933367    
391.055991074    383.714935841    383.483152582    382.586898408    386.245562884    
390.066599493    385.374095369    390.13695902    392.076871155    385.552811327    
389.722327875    382.141841509    367.48202807    357.170389235    369.927639644    
386.024786326    390.082723269    386.10257936    382.884094566    394.404225926    
391.944140569    391.344984503    393.436558629    387.821155989    395.894223287    
394.700843002    394.799038173    392.528186262    396.521177589    394.855617636    
387.901484438    386.700446741    385.868116441    389.647271039    385.216981748    
383.284667952    388.227362945    389.618044087    387.052424542    386.679344434    
367.117142251    361.832318608    360.004254668    379.269106917    367.186289958    
374.6740778    382.691978993    380.42167602    378.865008513    360.516762433    
352.891013104    337.230687154    344.269137655    346.16504103    340.633956169    
384.637204352    384.990977308    382.141849454    380.564207101    383.792184417    
381.721111033    382.803814838    379.794538331    379.747726754    375.611314502    
382.537713569    388.254326826    388.85006188    382.762588595    380.276528663    
382.048876764    389.500381412    387.607399811    392.853528025    392.201994564    
390.649435482    386.171819432    390.160056115    384.300624283    380.929699613    
388.038848979    384.644926822    386.628462407    388.588662882    391.423946417    
393.560001945    393.914908525    396.759632705    394.45344963    398.992975385    
398.064097211    394.604296674    399.528358113    398.63650625    399.291446916    
397.077305166    394.468767764    377.722668184    380.822268298    374.606495082    
379.603624287    382.86377224    379.964951899    375.714205363    380.112517772    
379.041756507    383.595612622    346.074643435    344.528510051    343.949698726    
391.390247854    376.410398012    380.228071225    380.434263522    380.290065877    
380.985591683    384.508033825    384.560599936    362.592587141    370.531553569    
372.888804416    378.83722721    373.912050057    381.033570598    379.531299859    
380.448115716    382.773807011    381.876575181    382.850513501    386.619499168    
386.436902441    384.266784669    353.980090993    345.639555498    354.962792583    
368.927247096    377.528487639    376.162683654    375.688697901    377.073369986    
371.682121966    378.453501639    370.560603027    380.845694505    384.662998267    
381.207764595    376.827755611    376.236554654    375.210926182    357.06713348    
355.241671245    393.877105237    394.43146601    386.502067092    384.7134322    
377.263762885    396.00145261    395.333778544    395.892754612    395.046874782    
380.953350176    377.661972898    
-0.443535108344    -0.476858574166    -0.477507314528    -0.453741684273    -0.477382301252    
-0.477483689335    -0.443939846993    -0.453489790266    -0.453174876988    -0.455260595415    
-0.475674578687    -0.454213889279    -0.431624784813    -0.433651825749    -0.454612727323    
-0.476124665037    -0.456255547988    -0.433874221697    -0.477726005922    -0.476932626361    
-0.47731601293    -0.44801552751    -0.42386677561    -0.426070186696    -0.47678372161    
-0.452908977711    -0.455762883252    -0.434294246181    -0.425454593404    -0.423021604928    
-0.390726711583    -0.367836385799    -0.377769039054    -0.476016373007    -0.475891239819    
-0.458357835251    -0.45375404426    -0.450903503105    -0.475031025481    -0.475927756588    
-0.474994201682    -0.451482200483    -0.422882538891    -0.424989088549    -0.30459741425    
-0.283203437246    -0.244113623718    -0.290289425994    -0.279109397292    -0.292351961721    
-0.240545528233    -0.25149143298    -0.317807990765    -0.103496763152    -0.106765200294    
-0.144603109267    -0.234641060714    -0.204030985768    -0.174412337658    -0.195484495912    
-0.163465431936    -0.188313276887    -0.23368181804    -0.135935098213    -0.141066091841    
-0.177008707693    -0.149086515755    -0.12820328579    -0.16708473855    -0.181632815089    
-0.173178750157    -0.0894727321335    -0.424716437046    -0.379288203039    -0.456644096139    
-0.477629072559    -0.448818390644    -0.38761983607    -0.426097820104    -0.32301759406    
-0.355322224871    -0.354080498059    -0.379372042341    -0.388111667505    -0.433751114822    
-0.430999679445    -0.474283564394    -0.429824201625    -0.429444088528    -0.386000377907    
-0.38580993509    -0.455002625728    -0.478297884337    -0.478348245818    -0.424755860866    
-0.431819014367    -0.386594975738    -0.455484794839    -0.433835186221    -0.371035812034    
-0.387513151883    -0.324876486821    -0.316052118257    -0.378657648319    -0.378110354998    
-0.20405630588    -0.20946541523    -0.256695296146    -0.207304817398    -0.199452446222    
-0.17788076563    -0.144179442666    -0.226451960501    -0.160837092245    -0.236307907927    
-0.13785313454    -0.216594697664    -0.214446920775    -0.245528855123    -0.196587401632    
0.0456611387881    0.047740707035    0.0558793267968    -0.25289680308    -0.272499360137    
-0.25044122172    -0.300000234767    -0.248769036353    -0.236019545444    -0.191632577842    
-0.231093348787    -0.227613475967    -0.251890751203    -0.295130481706    -0.306812570501    
-0.319220127188    -0.278590190483    -0.307217057091    -0.315268117882    -0.254120073839    
-0.115002993411    -0.162654631316    -0.175266650195    -0.20670114185    0.125046287096    
0.116743930127    0.0898115005509    0.0282976414784    0.00774803536567    0.0607994729187    
0.062079167729    0.0580349039984    0.0226427602307    -0.157381130839    -0.0965224929502    
-0.109878711848    -0.0804224578207    -0.0726853822994    -0.103837242337    -0.110510032821    
0.0579738898012    0.0787400362873    0.0109051075503    -0.368543311496    -0.369379406788    
-0.359600482643    -0.282255453761    -0.298958042347    -0.27784824361    -0.322098303228    
-0.358667147598    -0.347449592602    -0.355434876916    -0.250922416625    -0.256535252778    
-0.321641627338    -0.354645629156    -0.352583410478    -0.353159349143    -0.354619465649    
-0.426062689616    -0.3812247889    -0.446208538282    -0.380387117472    -0.466913842736    
-0.378231258412    -0.380069306683    -0.372743607264    -0.161493185428    -0.179600648957    
-0.188133289134    -0.210752697755    -0.198220433391    -0.215266760215    -0.14135117938    
-0.210926099089    -0.224866139509    -0.276635670106    -0.229122884891    -0.275493491607    
-0.0618723102512    -0.0315299256865    -0.0628746813068    -0.0654166683221    -0.0831980336445    
-0.0278686817422    -0.0573804276474    -0.00831940837445    -0.0077710658995    -0.0490338011907    
-0.0593042170468    -0.0262806126693    -0.0683452621731    0.0232894287235    0.0155895211332    
0.013729392788    -0.134637369375    -0.0684321432428    -0.193260386454    -0.129599772768    
-0.145970949581    -0.171938901906    -0.112403697573    -0.0398027413549    -0.0384636434934    
0.0405919374048    0.104264281798    0.0018995034662    -0.0998272242893    -0.0951380233758    
-0.121093706599    -0.149817135036    -0.178552279268    -0.258531638195    -0.200735749861    
-0.262197860967    -0.225055461192    -0.275465128676    -0.218410043027    -0.295569028417    
-0.30122432003    -0.246278967914    -0.294236719421    -0.320848632035    -0.247502209272    
-0.272323048422    -0.33879631909    -0.284275394795    -0.328739292976    -0.321092859101    
-0.350726164964    -0.32064601824    -0.28832479563    -0.334606316472    -0.344339248921    
-0.366942745579    -0.362635539559    -0.335014806894    -0.331384125175    -0.341988528704    
-0.366205959596    -0.301680353639    -0.29186893669    -0.332015730503    -0.351584961163    
-0.332292753868    -0.351250701588    -0.357311641203    -0.300262345116    -0.29637867181    
-0.32933160075    -0.357721517158    -0.291817878181    -0.280153723312    -0.324015889123    
-0.287317431289    -0.326710024827    -0.356152046038    -0.327170884258    -0.284326016612    
-0.282025458274    -0.331926880973    -0.357580964101    -0.356248913169    -0.299032325194    
-0.277436287152    -0.269378528181    -0.279634658501    -0.328942813399    -0.154082368748    
-0.128083717645    -0.14287966675    -0.150906497605    -0.223104667467    -0.202582528795    
-0.177308700224    -0.290222310963    -0.328861731202    -0.361799263901    -0.288290074726    
-0.319964381762    -0.382241181097    -0.343271667341    -0.298818105336    -0.310805158072    
-0.287789954762    -0.281647540078    -0.273693519072    -0.261991528036    -0.21579069897    
-0.25496512553    -0.231242885511    -0.252068531377    -0.290628659531    -0.192138855938    
-0.220455532104    -0.145796900912    -0.0358188410106    0.0308016474518    -0.0442448606736    
-0.194116742853    -0.209059627955    -0.212889215161    -0.170809458197    -0.278974790087    
-0.28015552325    -0.284866600478    -0.309856930263    -0.243519032009    -0.305118224003    
-0.290600357939    -0.252080919729    -0.269133329749    -0.337821686255    -0.280543914469    
-0.2668052965    -0.278058974415    -0.268155721615    -0.265493046464    -0.231000518385    
-0.189499351209    -0.235061906964    -0.231885114223    -0.229190369787    -0.272580639624    
-0.0147266319496    -0.00055803209603    0.0238118785054    -0.109449743469    -0.0583453653266    
-0.103222408525    -0.143168128991    -0.136915912683    -0.113862170221    -0.0218798698137    
0.0381515512337    0.131318323306    0.103195077551    0.0935857061643    0.120092091243    
-0.256136521502    -0.263295511158    -0.265381286964    -0.239459344057    -0.198704475915    
-0.17296487327    -0.20788086035    -0.166494355646    -0.160921589897    -0.12708597714    
-0.19783865477    -0.269083744591    -0.226266015015    -0.204473257907    -0.179137037346    
-0.170727153785    -0.18110494244    -0.174915299684    -0.240134697989    -0.263291626579    
-0.244765337672    -0.220173985648    -0.2398460934    -0.178935871458    -0.16806955444    
-0.253085355919    -0.211816772027    -0.261406295759    -0.257935633369    -0.292935817299    
-0.237567867448    -0.267291196335    -0.313299005827    -0.227168436931    -0.269766518574    
-0.28861962503    -0.255499013481    -0.290192683857    -0.302793344641    -0.264122703991    
-0.346710250042    -0.285791177392    -0.224290298321    -0.144919781525    -0.112033436286    
-0.139440110868    -0.193015905967    -0.182709794572    -0.136473187904    -0.165516509733    
-0.22601672813    -0.269158212868    -0.0457798197077    -0.0344751355924    0.0657537293044    
-0.178477637138    -0.150776457007    -0.202505382542    -0.18833377831    -0.193331081736    
-0.204581458574    -0.236800884572    -0.236734137943    -0.0659832758253    -0.108894369535    
-0.123188616478    -0.208378446506    -0.163837745331    -0.227689835695    -0.21334327057    
-0.20862179999    -0.235758196325    -0.227354358494    -0.219213256382    -0.260102360717    
-0.238446483198    -0.230823610603    -0.077467846009    -0.0387568242801    -0.0855338347332    
-0.113259861107    -0.17405448495    -0.174287210692    -0.173728722338    -0.173376751098    
-0.156069237719    -0.208286002214    -0.14064499963    -0.236629771413    -0.271763199028    
-0.223180136047    -0.192136854571    -0.16672593989    -0.140712247142    -0.0473310149749    
-0.0241676607657    -0.349061264192    -0.346252858035    -0.218588213405    -0.231403986024    
-0.211418321447    -0.343597873914    -0.346465439649    -0.335274457327    -0.338294761518    
-0.216674577214    -0.19615420953    
1     2     3     61     
3     2     1     4     
4     2     1     5     
5     2     1     20     
11     12     3     13     
3     12     11     1     
1     3     12     61     
1     12     11     20     
13     12     3     67     
11     12     13     15     
15     13     11     14     
11     15     14     59     
13     15     12     67     
11     12     15     59     
16     18     19     17     
19     18     16     9     
9     19     18     64     
17     18     19     59     
16     17     19     14     
1     20     11     21     
21     1     20     6     
21     20     11     92     
12     20     1     61     
11     20     12     92     
6     1     20     5     
6     20     21     27     
5     20     6     7     
5     20     7     2     
6     7     20     66     
1     20     2     61     
2     20     7     22     
22     20     7     90     
2     20     22     61     
8     23     24     26     
24     23     8     25     
25     23     8     62     
8     23     26     64     
24     26     23     63     
26     27     21     19     
21     27     26     28     
28     21     27     6     
28     27     26     63     
20     27     6     66     
21     27     20     92     
32     29     30     33     
30     29     32     31     
32     30     31     69     
33     30     32     34     
33     34     32     35     
35     33     34     90     
35     34     32     69     
32     34     30     69     
33     30     34     66     
36     37     39     83     
39     37     36     38     
38     39     37     43     
42     43     41     137     
41     43     42     39     
39     41     43     38     
39     43     42     68     
40     43     38     48     
38     43     40     41     
41     43     40     75     
38     43     37     48     
39     37     43     83     
40     43     48     79     
37     48     43     79     
49     50     51     52     
51     50     49     35     
35     51     50     69     
35     50     49     68     
49     50     52     97     
19     59     18     92     
17     18     59     86     
17     59     19     14     
11     59     14     19     
19     11     59     92     
12     15     59     93     
12     59     11     92     
60     61     22     137     
22     61     60     2     
22     61     20     90     
20     61     12     115     
10     62     23     109     
23     62     10     8     
8     10     23     64     
26     63     24     28     
26     63     27     64     
23     63     26     64     
63     64     23     109     
27     64     63     110     
26     64     27     19     
19     64     9     26     
26     64     9     8     
18     64     19     92     
9     64     18     10     
23     64     10     109     
8     10     64     9     
10     18     9     65     
10     64     18     91     
10     18     65     107     
33     66     34     90     
30     34     66     113     
7     20     66     90     
27     66     20     112     
50     68     34     135     
34     68     50     35     
35     34     68     90     
35     50     34     69     
49     68     42     35     
42     68     49     39     
39     68     49     83     
42     68     43     137     
39     43     68     83     
35     68     42     137     
49     68     50     83     
69     31     32     51     
32     69     51     35     
30     69     34     136     
34     69     50     114     
45     70     47     85     
47     70     45     44     
44     70     45     81     
74     75     40     122     
40     75     74     76     
76     74     40     96     
76     75     74     156     
43     75     41     137     
40     75     43     122     
55     78     57     95     
57     78     55     56     
56     57     78     96     
56     78     55     105     
56     78     73     74     
73     78     56     72     
72     73     78     157     
72     78     56     105     
74     78     73     157     
56     74     73     156     
56     78     74     96     
37     48     79     84     
37     79     43     99     
40     79     48     96     
43     79     40     122     
45     71     81     101     
81     71     45     46     
45     81     46     44     
70     81     44     82     
82     70     81     97     
82     81     44     46     
45     81     70     142     
82     81     46     53     
53     82     81     97     
50     83     68     135     
49     83     50     97     
49     39     83     36     
36     83     49     97     
36     37     83     97     
37     84     79     124     
48     79     84     103     
70     85     45     142     