Title = " tecplot file for 2D Cavity problem " 
variables = "x", "y", "z", "velX", "cellCentroidY" 
Zone T = "nmesh0" N = 168 E = 466 DATAPACKING = BLOCK, VARLOCATION = ([4-5]=CELLCENTERED),  ZONETYPE=FETETRAHEDRON 
0.23838104958    0.23887904452    0.3    0.2    0.13732468972    
0.13702752594    0.1    0.051427559857    0.0    0.051554777552    
0.41458409037    0.5    0.5    0.5    0.43047251134    
0.5    0.5    0.41389108349    0.5    0.5    
0.5    0.40988493213    0.5    0.3402389744    0.4    
0.33977021174    0.42808287283    0.5    0.40981870864    0.5    
0.39867108893    0.5    0.5    0.5    0.5    
0.41138953425    0.5    0.5    0.5    0.5    
0.39948298875    0.5    0.42833647092    0.5    0.5    
0.4303612709    0.41225287318    0.5    0.42213836312    0.42351570725    
0.4208522141    0.41966915131    0.42305210233    0.5    0.5    
0.41829329729    0.5    0.41797992587    0.41678509116    0.4073561728    
0.053433206699    0.023724900559    -0.033156112103    0.17285842098    0.27771398425    
0.22454390791    0.28258649104    0.32601154681    0.14581726186    0.10116890073    
0.10731705885    0.050372379595    0.28691256046    0.28398631369    0.15019595875    
0.17428602278    0.23516532036    0.13749680461    0.18275566399    0.17420459679    
0.22567240675    0.19867786765    0.22848429558    0.25836831331    0.32094819056    
0.11803464131    0.099178366363    0.33723041415    0.32822196975    0.2280630121    
0.2927288115    0.32190140742    0.11013898558    0.11259226501    0.35672467947    
0.33511499039    0.42327445745    0.4168253839    0.34714686871    0.3087477088    
0.19613178074    0.073977522552    0.13125571609    0.024327076972    0.16530394554    
0.10078687221    0.052885035648    0.3797275722    0.42512446642    0.22574973106    
0.091971047223    0.32450819016    0.35243031383    0.31797783875    0.34692415595    
0.2825846076    0.045684359968    0.37964245677    0.24450056255    0.33264538646    
0.27569195628    0.32169282436    0.22912324965    0.12609431148    0.10304665565    
0.3377006948    0.20131455362    0.24962322414    0.34551140666    0.33799776435    
0.20027701557    0.28541332483    0.031621340662    0.23129664361    0.17132388055    
0.036933004856    0.11557609588    0.23493692279    0.3339946568    0.30317646265    
0.26247379184    0.15041914582    0.05218212679    0.27890083194    0.034384440631    
0.10883488506    0.19725997746    0.15706507862    0.16764962673    0.032193314284    
0.15766808391    0.16960006952    0.079051792622    0.21100731194    0.15591920912    
0.34120205045    0.2590701282    0.23631863296    0.27395620942    0.24479758739    
0.2626427114    0.23062975705    -0.046197623014    0.02622140944    0.2118780762    
0.17542864382    0.35791161656    0.18562467396    
-0.5    -0.41472343476    -0.5    -0.5    -0.4168881557    
-0.5    -0.5    -0.5    -0.5    -0.43266810545    
-0.5    -0.5    -0.41618175339    -0.5    -0.5    
-0.5    -0.41889555576    -0.5    -0.41819843412    -0.5    
-0.41564889515    -0.5    -0.5    -0.41762424381    -0.5    
-0.5    -0.5    -0.4153699218    -0.5    -0.5    
-0.5    -0.5    -0.41820653554    -0.43047637182    -0.5    
-0.2351196651    -0.23500892398    -0.3    -0.2    -0.33893131854    
-0.33857438087    -0.4    -0.43015589406    -0.32665781431    -0.33691688491    
-0.28406116366    -0.22326628864    -0.26233258347    -0.39587140083    -0.36506685615    
-0.35991880298    -0.38906952739    -0.28728654981    -0.33336120628    -0.32786795189    
-0.38847386837    -0.3318451791    -0.30245664716    -0.38629558682    -0.29703965783    
-0.34019988404    -0.42616629601    -0.41681834914    -0.5    -0.41328206658    
-0.5    -0.5    -0.5    -0.5    -0.42190292478    
-0.5    -0.5    -0.41540122032    -0.33099918884    -0.5    
-0.40987175703    -0.5    -0.5    -0.41157954931    -0.32740004453    
-0.5    -0.40398362279    -0.5    -0.40840107203    -0.5    
-0.5    -0.40350434184    -0.31047663093    -0.26185631912    -0.22973869136    
-0.22138518095    -0.17256053992    -0.24149730754    -0.30303242803    -0.41352432966    
-0.5    -0.30768674612    -0.15878117085    -0.42989856005    -0.38929644227    
-0.40977177024    -0.42497992516    -0.40172451735    -0.41830760241    -0.40022647381    
-0.4243209064    -0.5    -0.43080624938    -0.28911292553    -0.30981233716    
-0.38227200508    -0.30754390359    -0.4389718473    -0.5    -0.36383622885    
-0.37153184414    -0.31761169434    -0.22600293159    -0.33944323659    -0.25078937411    
-0.27347847819    -0.24574446678    -0.34696641564    -0.2963745296    -0.31550174952    
-0.30777356029    -0.3179461658    -0.29175436497    -0.17046000063    -0.31759625673    
-0.20518957078    -0.30925294757    -0.28916287422    -0.28438603878    -0.28654807806    
-0.32322400808    -0.34224000573    -0.4055737555    -0.29389184713    -0.19264043868    
-0.12153756618    -0.18636290729    -0.23331569135    -0.35251045227    -0.32935139537    
-0.31939277053    -0.3455041945    -0.28313827515    -0.334821105    -0.18784360588    
-0.27471598983    -0.23590271175    -0.27347123623    -0.16312615573    -0.22678218782    
-0.21549329162    -0.23009064794    -0.39380568266    -0.32652196288    -0.27884525061    
-0.34262031317    -0.23815740645    -0.24319313467    -0.17033040524    -0.1397421658    
-0.2401958853    -0.43918856978    -0.34643083811    
-0.41525380821    -0.5    -0.5    -0.5    -0.5    
-0.4181531734    -0.5    -0.43420964528    -0.5    -0.5    
0.13768711289    0.2    0.14691656139    0.1    0.051761834717    
0.0    0.048665079525    -0.033012205004    -0.049503663441    -0.1    
-0.14785542545    -0.13389429422    -0.2    -0.5    -0.5    
-0.41768659873    -0.43009226427    -0.24638476548    -0.23459178214    -0.3    
-0.33841613399    -0.4    -0.34429606689    -0.43002168133    -0.5    
-0.5    -0.41421850615    -0.5    -0.5    -0.40331670293    
-0.5    -0.5    -0.5    0.19038062281    0.093989183076    
0.087716415524    -0.3588129282    -0.33538962859    -0.392544806    0.047403976321    
0.14376212656    -0.09749083966    0.0014200225705    -0.095113427316    -0.19413069007    
-0.2948076725    -0.2937422056    -0.14165526628    -0.19612362981    -0.2429433316    
-0.5    -0.39902687073    -0.5    -0.3290328843    -0.27435973287    
-0.23021076868    -0.33128374651    -0.26158470247    -0.15864528358    -0.18543876708    
-0.2452711774    -0.15239981667    -0.38807472587    -0.5    0.1568161242    
0.11003278196    0.11235836251    0.060923871281    -0.38747996092    -0.5    
-0.11262059943    -0.16715888679    -0.0010336220888    -0.059405729175    -0.064562959288    
-0.055645185549    0.011424860917    -0.40549471974    -0.5    -0.5    
-0.41411885619    -0.5    -0.5    -0.40083828568    -0.017282199115    
0.054057149291    -0.3322545588    -0.4167073667    -0.32568281889    -0.17042070627    
0.01528623607    0.094609223306    -0.087718769908    -0.037241317332    -0.27613860369    
-0.3525814414    -0.34379394928    0.091236807406    -0.42588192225    -0.40268585086    
-0.43302878737    -0.065370410681    -0.11588711292    -0.17153769265    -0.24706466496    
0.024736555293    0.065575197339    -0.42947751284    -0.22211249173    -0.34454509616    
-0.28504756093    -0.17986905575    -0.31761115789    -0.16345860064    -0.29515373707    
0.12006647885    0.066469952464    -0.011472829618    -0.38502970338    -0.1450894922    
-0.34361302853    -0.35071828961    -0.062301639467    -0.12454099208    -0.33957964182    
0.17034308612    0.11625244468    0.14758144319    0.028005558997    -0.25207874179    
-0.32863172889    -0.20166486502    -0.24961166084    -0.109052293    -0.15757079422    
-0.082985728979    -0.070507861674    -0.022462427616    -0.29257264733    -0.13513913751    
0.15782602131    0.078827299178    0.0038494174369    -0.052825815976    -0.10202209651    
-0.073836684227    -0.067244969308    0.075998753309    0.084541067481    0.13507446647    
0.15512171388    -0.20834755898    -0.011554532684    -0.044534139335    -0.1453962326    
-0.42512151599    -0.21702951193    0.15245999396    
399.672571384    399.868610089    399.591242388    399.554613949    399.847614485    
399.594523629    399.622852158    399.882045542    399.569822573    399.534072671    
399.871916251    399.723129183    399.874298442    399.510636499    399.242248382    
399.699681372    399.843763383    399.247038145    399.466622736    399.601253901    
399.841818101    399.562800135    399.902299992    399.935437019    399.718070977    
399.734513285    399.929282319    399.700969714    399.876980584    399.646938914    
399.826347418    399.915679156    399.74215757    399.963172908    399.98104093    
399.9041973    399.696735857    399.846925719    399.478955276    399.804651606    
399.912687805    399.811740272    399.980434272    399.90005296    399.984448915    
399.892644197    399.813283862    399.485133339    399.778768186    399.870531211    
399.5500355    399.7678635    399.861305592    399.418437338    399.902547857    
399.864665209    399.90765189    399.503536524    399.575504592    399.553725741    
399.166407069    399.48434489    398.89819336    398.888332586    399.192499615    
398.970456089    399.303888915    398.122848015    398.601694695    399.537241654    
399.146090873    398.855949527    399.722918511    399.673730078    399.224416903    
399.407701382    399.076229385    398.689569402    399.343819643    399.285895487    
399.672869912    399.812415539    399.72972336    399.401289699    399.44548648    
399.342414816    399.254324805    398.252794564    397.893706577    396.810196777    
399.476070989    399.656786608    398.793340468    398.610063244    399.763335205    
399.003370347    398.64401724    399.629013229    399.308423156    397.741112975    
398.502328129    396.352629945    399.631127775    399.306929512    399.133441944    
399.307546773    398.246960409    399.216967521    399.388315266    398.643886335    
398.886659099    399.102584965    397.798143751    398.879732206    397.870362377    
399.123128114    397.434157054    399.423017512    399.677374404    399.794849799    
399.177796329    399.707053394    399.295644001    399.188608805    399.336796889    
398.856084982    399.435905899    399.150182079    397.957442705    398.493814472    
397.70585398    397.372133785    399.422053193    399.610531295    399.727778594    
398.980570413    398.454987159    397.919328665    397.507814185    398.652560636    
398.602161482    398.885347334    399.281014068    399.619708413    398.714597093    
399.215838534    397.939415471    398.54635573    397.547495221    396.676770304    
396.931144515    398.136918068    398.793744036    398.269186274    397.494212762    
399.265164651    399.55773637    398.648171486    399.45094372    398.433865792    
399.265193109    398.547755679    398.316639053    399.084184275    399.177731755    
397.978209996    398.184177143    398.437023612    398.598337084    398.69507077    
399.018640203    397.91161588    399.469364616    397.129700147    397.750660643    
399.361389712    398.876710257    398.831437254    398.630265053    398.430899514    
397.084209204    395.566537452    395.98360226    398.573674756    399.666335321    
398.694518184    399.568482774    399.259236811    399.27208499    397.59316975    
399.106884254    398.350913301    397.816045719    397.671065872    398.740269756    
397.907479164    399.766632268    399.749698574    397.489364251    399.684930691    
398.765265164    399.287145677    399.043300481    397.461239375    396.745845762    
396.518137787    395.370457513    395.857631364    397.191916814    396.868062752    
398.128522683    398.692784895    398.615096086    397.443522761    397.469704395    
396.240053244    396.01990808    392.807119691    395.887538421    397.923864399    
397.128645458    392.838392383    395.944439253    393.374597943    398.531473992    
396.556803119    394.687929962    396.189069499    398.763064634    394.586033999    
398.462656184    393.092545159    397.20906567    392.279690919    396.855770443    
397.824836777    398.773635362    393.385418343    398.297307755    395.443046941    
399.289904128    399.594012648    396.234367392    399.506061852    398.745460172    
399.118189422    399.519397329    399.730699108    399.679271205    397.631087566    
396.743767765    397.988994189    397.983537529    397.242723072    398.582067667    
398.723435131    398.91926529    399.583977786    399.83742639    399.636142947    
399.850755734    399.237260623    398.743245863    399.190719715    396.084366068    
397.530253001    398.040000197    399.234110098    399.061662015    397.036411094    
396.560007193    397.674795524    397.261376489    399.515245316    399.712610488    
399.528347802    398.762510792    399.750278635    394.885364998    396.333385478    
396.912358889    398.761946033    399.372842097    399.738128623    399.613750047    
399.181915097    395.919918843    395.965145948    398.491900168    396.066059828    
398.546037019    398.751002639    398.296566004    397.221571312    396.142888747    
398.154719746    395.885694974    395.465701078    397.797490915    394.815109752    
396.679740214    393.588094315    394.341748656    392.917309561    399.300794227    
398.813172018    397.260267029    396.834140932    397.110725193    398.534232275    
396.903053462    395.329279155    395.77927497    397.217830187    394.690814304    
392.720350218    395.279402832    394.326062576    396.970825529    396.156587961    
395.875553131    396.103261285    393.717492097    393.393973176    394.459738687    
391.150180827    397.174974978    395.941796465    396.998141599    396.06056204    
392.863342908    395.11588252    396.0260778    394.079284898    392.549791515    
392.097500327    392.185829734    391.785421962    391.613651344    391.382380731    
391.457479287    393.549717532    392.506100181    392.451106468    392.441805605    
397.578825578    393.983854985    396.356836921    394.698465752    391.66162354    
397.280207513    396.817121619    395.296276389    393.695232298    394.348780356    
394.585890534    394.784845936    393.445177107    396.982840229    397.97625471    
389.508889046    391.373922673    391.089278919    392.730070115    392.533913794    
390.842325573    389.964245009    391.761556815    389.179472887    395.555200936    
395.547505689    392.594787027    389.87532347    392.753282709    393.681130872    
390.749416922    390.154303733    388.12501849    391.248184968    388.24868203    
397.035024709    394.981871579    391.584695358    382.485581456    386.769619945    
388.327339946    388.305354369    390.59811562    395.465998204    392.132930456    
390.451722933    389.129894065    395.63485307    392.292852326    393.789122038    
384.435093656    391.319678798    387.295296834    384.034810722    384.280965516    
391.293234594    390.869019036    387.552711122    387.285487633    389.426920925    
386.379924618    389.76264396    387.906811314    387.267197623    388.310429299    
385.6151463    386.208926712    391.164315114    384.686744002    392.170085964    
391.903825039    388.508778    393.14338614    395.212325945    388.375628018    
388.562145531    391.217591515    390.611140211    381.148300634    382.132838362    
381.037437727    384.162637638    388.023791891    388.232704061    383.499599009    
388.128952927    383.156345444    383.050714661    378.940908936    378.63647966    
384.21589543    384.584044793    389.261385414    382.324409405    382.457170533    
381.45985823    379.735134013    392.698207871    393.333322164    392.62991327    
394.175744081    398.533299304    392.317319094    390.610444982    390.464613862    
392.290049967    390.258664263    390.067930397    383.366678205    386.107629512    
384.57039588    381.615031779    384.794276413    378.564206848    398.696783863    
397.777551527    399.695596199    399.770139559    399.48068866    393.650174262    
388.288649255    
-0.456692570527    -0.478280771013    -0.454871756821    -0.449892265459    -0.478856696614    
-0.456197632435    -0.463596692026    -0.483183130465    -0.45283684324    -0.459912639434    
-0.478751030015    -0.478614032945    -0.479107666186    -0.460341630222    -0.444529853259    
-0.458386453648    -0.479368606612    -0.427029824301    -0.452386854662    -0.451067071233    
-0.478698706723    -0.45093594826    -0.477797868164    -0.479105723317    -0.456612588172    
-0.450797080529    -0.460843690127    -0.451649248424    -0.47861786419    -0.449979565325    
-0.45479474739    -0.479735100818    -0.452014230508    -0.465163085486    -0.482657454189    
-0.45546346289    -0.264495507959    -0.243403505156    -0.206748184261    -0.31717244335    
-0.344882061098    -0.368268577131    -0.441714752809    -0.413879303047    -0.48248808445    
-0.439110460847    -0.4356893809    -0.431081571581    -0.472159944379    -0.471924931703    
-0.455668453069    -0.394979416568    -0.389579855771    -0.36606850285    -0.389675463922    
-0.395376527394    -0.435828514519    -0.364342214742    -0.427371211504    -0.342062038735    
-0.408522173107    -0.384613556201    -0.370090224392    -0.423800615757    -0.42950790818    
-0.442878822068    -0.359922979131    -0.336844086403    -0.326660433885    -0.470477044435    
-0.45735369397    -0.431009401873    -0.430942780427    -0.389125735582    -0.424406275305    
-0.366280625265    -0.379142523488    -0.338572812906    -0.428782783165    -0.377261422474    
-0.388474250021    -0.43066101965    -0.470670794243    -0.424196617349    -0.455110210201    
-0.362270100373    -0.380037407363    -0.35158021487    -0.328266809645    -0.350151987131    
-0.365167700756    -0.386205908881    -0.335941692141    -0.350427885839    -0.429485648358    
-0.428176389908    -0.428488747286    -0.469626496658    -0.456968627459    -0.358687543859    
-0.331472635041    -0.326405737102    -0.443721830967    -0.403017407098    -0.395817931786    
-0.435339668659    -0.453296534201    -0.47812019072    -0.477826987252    -0.454580830084    
-0.462745683684    -0.460415677938    -0.456362267734    -0.480357306291    -0.455462403081    
-0.480600274728    -0.455504090199    -0.46208560762    -0.478663989564    -0.478134869896    
-0.45623966786    -0.436593900052    -0.435007138033    -0.385226324439    -0.435674819744    
-0.367915917146    -0.394950364446    -0.369270892528    -0.455803131374    -0.476958939547    
-0.45574951295    -0.458437220435    -0.47718636345    -0.477562571415    -0.476978517253    
-0.459324437819    -0.434855294609    -0.431420769567    -0.397613276431    -0.439934699421    
-0.387297072302    -0.383880311606    -0.392670768238    -0.43545649559    -0.366610536456    
-0.428705371796    -0.448913020182    -0.475264494448    -0.450687133144    -0.432006626611    
-0.432694251557    -0.455672331695    -0.477000758792    -0.461149062034    -0.451830062054    
-0.335247695851    -0.348935138206    -0.385956139616    -0.311405987651    -0.342643430472    
-0.299661353672    -0.281266404806    -0.27343576844    -0.260234958045    -0.221339461931    
-0.293241324128    -0.25560776226    -0.220136865196    -0.337025949486    -0.303511819041    
-0.478277604629    -0.447706823833    -0.478535569019    -0.425500584041    -0.439420727472    
-0.477231945432    -0.462771701994    -0.460298926563    -0.427977262957    -0.396221549843    
-0.363496408518    -0.341067739168    -0.348305824428    -0.436476039011    -0.349503564755    
-0.380275771972    -0.311007169412    -0.333299539575    -0.29944476646    -0.339079878571    
-0.214120726651    -0.360674136414    -0.371380592812    -0.342574421737    -0.326930762705    
-0.367273676785    -0.482939601194    -0.482806171101    -0.389540927949    -0.482384348981    
-0.445150924122    -0.466457434148    -0.439424339245    -0.435393435939    -0.425469469132    
-0.428643834257    -0.390323504698    -0.387750859966    -0.426937727248    -0.429267272214    
-0.437065546208    -0.477250593911    -0.477547474159    -0.452974994256    -0.454511797446    
-0.42963123037    -0.431467197238    -0.384434859906    -0.434892835716    -0.45399437251    
-0.431237541589    -0.394972172202    -0.431797624    -0.390221063661    -0.474830683708    
-0.43006094982    -0.392566758687    -0.423359427604    -0.474428137104    -0.391206419478    
-0.474466316785    -0.379086266633    -0.454873183206    -0.385379173957    -0.394448313836    
-0.434407926329    -0.474543633829    -0.378588230924    -0.456257874964    -0.390236527337    
-0.481491617894    -0.481592749243    -0.393339718641    -0.480528832643    -0.430309335677    
-0.451158177833    -0.441221554583    -0.482114868423    -0.48303908546    -0.428612555594    
-0.39489765587    -0.282774236936    -0.263272107951    -0.27425724369    -0.270453708467    
-0.242974226758    -0.252646061096    -0.282077600427    -0.290746608704    -0.281771026571    
-0.290750564305    -0.25385742145    -0.272687616278    -0.245591325123    -0.330269679769    
-0.338760042737    -0.356055976201    -0.345435561362    -0.299058220767    -0.250101013652    
-0.285982318869    -0.339006956409    -0.371446483105    -0.365459738069    -0.392727236716    
-0.46742832259    -0.433905918073    -0.432872244481    -0.327830099058    -0.385108218024    
-0.381709150798    -0.441332590016    -0.485273438705    -0.485917506261    -0.485298839385    
-0.469477063407    -0.390817204054    -0.363847885942    -0.457490314787    -0.399210743063    
-0.442095365521    -0.470909032232    -0.406147427615    -0.351293023895    -0.340376843931    
-0.394513288601    -0.367567403114    -0.360557153024    -0.445524013617    -0.374177062946    
-0.421131340268    -0.383206183498    -0.346997679046    -0.345247297615    -0.223051057444    
-0.196474249131    -0.197062248806    -0.252293515357    -0.253313609756    -0.211249951463    
-0.194541449142    -0.364840695239    -0.376400494391    -0.401676257319    -0.351352305543    
-0.358548068746    -0.375397633865    -0.371288900061    -0.295062895027    -0.217866533998    
-0.217855942865    -0.272252447549    -0.317585501087    -0.305120434947    -0.331674725241    
-0.274703811522    -0.373479825031    -0.34033382506    -0.34775900007    -0.357892761106    
-0.322647673496    -0.325341392747    -0.375616884194    -0.355647222486    -0.357235991168    
-0.360467556162    -0.361129486664    -0.335256065706    -0.341655520407    -0.3670710434    
-0.368766737689    -0.381817292911    -0.339508071918    -0.354054857899    -0.189509401472    
-0.181236631348    -0.348822245186    -0.363975573115    -0.306178983833    -0.297605441109    
-0.394036940206    -0.383092993723    -0.357043569229    -0.276272953013    -0.258879631231    
-0.243639530423    -0.31274548047    -0.302817252083    -0.376619191562    -0.412145259465    
-0.290473153832    -0.33047303406    -0.33341478352    -0.345497915704    -0.323082400746    
-0.287812366698    -0.278041576215    -0.314122639647    -0.267138793584    -0.338091781159    
-0.347219906463    -0.268079154511    -0.250585599775    -0.308342095038    -0.260116981196    
-0.371734275411    -0.352710618571    -0.333877883182    -0.353728073795    -0.336355365635    
-0.429801579824    -0.336428836626    -0.183108703212    -0.226089392573    -0.258392785615    
-0.29379209809    -0.279271221384    -0.307865793057    -0.379223437765    -0.34821974323    
-0.317938033509    -0.279618894623    -0.37529483777    -0.348002897127    -0.378218754841    
-0.259915333443    -0.344208994074    -0.308557874475    -0.273053123299    -0.280638378451    
-0.36751185457    -0.34086499761    -0.288768863936    -0.296345170487    -0.340490624254    
-0.29302002503    -0.340384991243    -0.322959177467    -0.300103125191    -0.310052037969    
-0.273059564215    -0.284051022453    -0.333122250184    -0.281437247426    -0.359813685765    
-0.340466209974    -0.274338855363    -0.309826416541    -0.371198215682    -0.266684235663    
-0.258648941749    -0.296421292906    -0.28180264404    -0.223353845649    -0.249817568595    
-0.240525938452    -0.277339937861    -0.323137957844    -0.324812658089    -0.27494549085    
-0.324414181626    -0.280367002202    -0.275231436789    -0.237138864684    -0.220319329312    
-0.256397535074    -0.222024466272    -0.250658956504    -0.241989834099    -0.217902145321    
-0.227001321692    -0.190436065207    -0.365726444207    -0.372009788243    -0.352281438291    
-0.388234006366    -0.472656474996    -0.345887419134    -0.326402668131    -0.316409160675    
-0.350318230303    -0.321579412619    -0.301672186417    -0.220544704972    -0.261241319083    
-0.237579283489    -0.19849360907    -0.225057300749    -0.242173833685    -0.457407259541    
-0.413185458473    -0.485487343766    -0.485516990421    -0.485159859647    -0.371381393469    
-0.319773690464    
1     2     3     73     
3     2     1     4     
1     4     2     79     
5     6     7     111     
7     6     5     4     
5     4     6     79     
8     9     10     62     
10     9     8     7     
7     8     10     111     
11     14     13     108     
13     14     11     12     
15     16     17     18     
17     16     15     14     
14     15     17     108     
18     17     15     50     
18     16     17     19     
19     18     16     20     
19     17     18     50     
19     18     20     52     
21     22     23     59     
23     22     21     20     
21     20     22     52     
24     25     26     27     
26     25     24     3     
24     26     3     73     
24     27     26     49     
24     25     27     43     
28     29     30     56     
30     29     28     23     
28     23     29     59     
31     32     33     49     
33     32     31     30     
30     31     33     56     
34     27     35     43     
35     27     34     32     
34     32     27     49     
36     37     38     109     
38     37     36     39     
36     39     37     98     
40     41     38     109     
38     41     40     42     
40     42     41     49     
43     35     34     42     
34     43     42     49     
35     43     27     25     
34     27     43     49     
24     43     27     49     
24     49     26     73     
27     26     49     31     
31     49     27     32     
26     49     31     99     
43     49     24     41     
41     43     49     42     
41     49     24     88     
42     49     40     34     
34     49     40     33     
33     34     49     32     
33     49     40     97     
31     49     33     56     
40     49     41     109     
13     17     50     108     
50     17     13     45     
13     50     45     51     
19     50     18     95     
15     50     17     108     
18     50     15     95     
45     13     51     44     
45     51     50     46     
45     51     46     44     
20     52     18     22     
22     52     18     113     
19     18     52     95     
19     52     20     21     
19     52     21     54     
21     52     22     59     
54     52     21     55     
55     52     21     59     
54     52     55     58     
49     56     31     99     
33     56     49     97     
28     56     33     57     
33     56     28     30     
30     31     56     29     
28     29     56     59     
31     56     29     99     
57     56     33     97     
28     56     57     59     
55     58     52     59     
58     59     55     60     
52     59     58     130     
28     59     57     55     
55     28     59     21     
55     59     57     60     
57     59     56     60     
21     28     59     23     
56     59     29     167     
22     59     52     113     
23     59     22     29     
29     59     22     167     
56     60     59     115     
57     60     56     97     
59     60     58     130     
10     63     62     9     
62     63     10     61     
10     62     61     111     
8     62     10     111     
64     65     66     105     
66     65     64     67     
67     66     65     68     
67     65     64     79     
66     65     68     167     
67     68     65     99     
69     70     66     82     
66     70     69     71     
71     66     70     105     
71     70     69     72     
72     70     69     103     
67     73     26     99     
26     73     67     1     
1     26     73     3     
1     73     67     79     
3     73     2     24     
1     2     73     79     
49     73     24     88     
26     73     49     99     
74     73     2     110     
2     73     74     24     
24     73     74     88     
75     76     77     138     
77     76     75     78     
78     77     76     101     
78     76     75     102     
64     79     1     67     
1     79     64     6     
6     1     79     4     
6     79     64     106     
67     79     73     65     
64     79     65     105     
65     79     73     123     
67     65     73     99     
73     79     2     110     
80     79     5     111     
5     79     80     2     
2     5     79     4     
2     79     80     110     
5     79     6     111     
81     82     66     100     
66     82     81     69     
69     82     81     103     
70     82     69     103     
66     82     70     105     
83     84     85     95     
85     84     83     81     
81     85     84     113     
81     84     83     103     
41     49     88     109     
41     88     24     74     
73     88     49     99     
41     88     74     89     
74     88     73     110     
89     41     88     109     
89     88     74     91     
90     91     74     110     
74     91     90     89     
89     91     90     92     
74     91     88     110     
89     88     91     118     
92     89     91     118     
80     61     94     111     
94     61     80     93     
83     95     85     96     
96     83     95     116     