Title = " tecplot file for 2D Cavity problem " 
variables = "x", "y", "z", "velX", "cellCentroidY" 
Zone T = "nmesh0" N = 150 E = 466 DATAPACKING = BLOCK, VARLOCATION = ([4-5]=CELLCENTERED), ZONETYPE=FETETRAHEDRON
-0.33969382413    -0.33821104813    -0.3    -0.2    -0.23654934253    
-0.23442631643    0.0    0.051788512588    0.048302279937    0.1    
-0.036539552942    -0.1    -0.032957545583    -0.13666224726    -0.13378452454    
0.13770463614    0.2    0.13218280363    -0.26415387702    -0.22558563948    
-0.17605371148    -0.23336877561    -0.27676409483    0.075355291367    0.045580776326    
0.054106608372    0.16165715167    -0.075540573349    -0.12125059962    -0.12233015178    
-0.21442145109    0.13917322365    0.12681150436    0.032099205532    -0.081540942192    
-0.071421034468    -0.064321370558    -0.024988340214    0.089801393449    0.098131755548    
-0.013383025303    -0.014308815683    0.199893713    0.22001201334    0.24049588671    
0.027520179138    0.071248449385    0.13124883421    0.05497633249    0.060427083065    
0.070297665894    0.13032715471    0.025589508627    0.057757489939    -0.1486280825    
-0.18488626182    -0.2427204482    -0.242702547    -0.16331023844    -0.26108842105    
-0.30998492241    -0.17706693709    0.011399649084    -0.053748317046    -0.18194536865    
-0.24258606722    -0.14679513415    -0.15645491866    -0.22906027462    -0.22041392326    
-0.1710930563    -0.111761495    -0.30063694715    -0.10732157528    -0.00076911469271    
-0.060991029216    0.0074519892223    -0.17937526107    -0.058950658888    -0.30518463254    
-0.13780000806    -0.0092536676675    -0.16023084521    0.11961134523    -0.030030202121    
-0.042051788419    0.017661919817    -0.076444171369    0.12949699163    0.046723969281    
-0.24915324152    -0.22467558086    -0.29728317261    -0.19176098704    -0.2693310976    
-0.08715891093    -0.047226355567    -0.089128628373    0.043514356017    -0.24107302725    
0.02540740557    -0.1001540646    0.031862605363    0.047332841903    0.16273595393    
-0.16738939285    -0.098757520318    -0.026364712045    -0.12949573994    -0.12082306296    
-0.039546322078    -0.1325224936    0.06426165998    0.03918877244    -0.0067209075205    
0.014297979884    0.040696881711    -0.03237491101    0.033566184342    0.056703593582    
-0.049583990127    -0.29695540667    0.077206209302    -0.04975425452    -0.14424198866    
-0.14361406863    -0.24865736067    -0.21119880676    -0.2402394712    -0.16309058666    
-0.19645160437    -0.20868697762    -0.089738331735    -0.089620292187    -0.093031041324    
0.0158755593    -0.032366167754    0.079498335719    -0.11982141435    0.13536153734    
-0.09914444387    -0.21524465084    -0.058467663825    -0.038092400879    -0.024417564273    
-0.12341775    -0.058520920575    -0.0041930982843    0.12907977402    -0.019950056449    

0.5    0.39881754329    0.5    0.5    0.5    
0.41021213387    0.5    0.43123165166    0.5    0.5    
0.5    0.5    0.41476977044    0.5    0.41058757882    
0.415353217    0.5    0.5    0.5    0.41390678287    
0.5    0.5    0.41851401329    0.40556415915    0.5    
0.33694749971    0.5    0.5    0.41362947226    0.5    
0.41201668978    0.5    0.42218753695    0.5    0.41822323203    
0.5    0.32273088462    0.41023689508    0.41237428784    0.5    
0.40551966429    0.5    0.40188318491    0.5    0.5    
0.062263252802    0.035415314138    0.052376288664    -0.0083935976601    0.14406319042    
-0.052787981927    -0.070420141154    -0.079550209737    -0.1695197161    -0.057836333107    
-0.10745344311    -0.11206135244    -0.0030102295461    -0.15246265199    0.32649983882    
0.33604261279    -0.20350812376    0.1096214503    0.12253791368    0.10182720423    
0.10754402934    0.050669524734    0.14726805738    0.22529098708    0.29028022289    
0.31904986558    0.22792232241    -0.11567308009    0.16590942442    0.23199266606    
-0.13304965671    -0.12737318873    -0.003392345272    0.26088196039    -0.0049290945753    
0.40203583241    0.35532894731    0.36799457669    0.39421370625    0.41147202253    
-0.010382949375    0.20442558825    0.32958292961    0.31126359105    0.40195313096    
-0.17014044523    0.19135580957    0.12450686097    0.3276937902    0.28304952383    
0.066371306777    -0.006048885585    -0.097862228751    0.28596025705    -0.06353725493    
0.32341533899    0.35140454769    0.051580730826    0.30761867762    0.3275821209    
0.30294573307    -0.024031469598    -0.097555346787    -0.17197673023    0.022327756509    
0.16369615495    0.23405236006    0.21694687009    -0.037219654769    0.26174619794    
0.29378727078    0.357855618    0.28397116065    0.1805921495    0.19606357813    
0.18976834416    0.40151166916    0.32208579779    0.0026446154807    -0.068703122437    
0.047414053231    0.028308650479    0.12184236199    0.046832572669    0.16244494915    
0.22895142436    0.075854338706    0.11402367055    0.23688864708    0.34648191929    
0.12777155638    0.076066583395    0.12276419252    0.089447163045    0.26129713655    
0.026923459023    0.24710139632    0.081637457013    0.16411808133    -0.02158492431    
0.14523732662    0.22169439495    0.43022921681    0.26909923553    0.22286942601    

0.4035384777    0.5    0.5    0.5    0.41486458384    
0.5    0.5    0.5    0.43218772171    0.5    
0.41719225542    0.5    0.5    0.41462228214    0.5    
0.5    0.5    0.41553842165    0.33582110334    0.35972952843    
0.32850290629    0.24088832304    0.29022592306    0.39553371072    0.33887500709    
0.5    0.32333626661    0.14697752401    0.18341563642    0.24184870647    
0.1786558032    0.13620338323    0.075629703701    0.14345253318    0.3870999217    
0.32948522844    0.5    0.11474210024    0.17156606913    0.23504228926    
0.30274164677    0.23986469613    0.1555070281    0.22436354054    0.10595417938    
0.5    0.41492205858    0.5    0.5    0.5    
0.42031297088    0.5    0.5    0.5    0.5    
0.4218134582    0.5    0.5    0.5    0.5    
0.40507993102    0.40948286653    0.40513393283    0.5    0.40903988481    
0.5    0.5    0.5    0.5    0.41332420707    
0.5    0.5    0.41369006038    0.41374370456    0.5    
0.5    0.39857259393    0.41109591722    0.40931418538    0.40362745523    
0.29266831279    0.42102536559    0.41608563066    0.285489887    0.20950149    
0.36995971203    0.41078492999    0.33389627934    0.12092830241    0.24348624051    
0.32927832007    0.40685939789    0.39659529924    0.32722976804    0.28694593906    
0.41912767291    0.5    0.39003032446    0.42958766222    0.34509626031    
0.052092600614    0.11417367309    0.30914595723    0.31000220776    0.21818335354    
0.20952318609    0.43335348368    0.28269585967    0.30040669441    0.35181468725    
0.35594251752    0.3300344646    0.086114391685    0.33446398377    0.10158551484    
0.17785108089    0.1284172684    0.26147404313    0.1915037483    0.30612745881    
0.27133256197    0.20654162765    0.23009197414    0.26697871089    0.30619335175    
0.27146923542    0.27208101749    0.30808600783    0.36249628663    0.20235726237    
0.26062273979    0.19620914757    0.23412257433    0.16908699274    0.23705966771    
0.26289540529    0.17086197436    0.35016521811    0.099740616977    0.18298453093    
0.1989158541    0.3409306407    0.3158211112    0.12354470044    0.15856590867    
0.31263998151    0.099927298725    0.38276821375    0.26383394003    0.16025471687    

147.436210411    215.035966918    265.477432827    151.471924287    179.066389522    
219.076557311    179.055399731    187.002334331    126.05106344    202.599611954    
203.463390546    192.69234225    215.528991991    226.550190049    270.807854669    
173.701116236    254.314535542    250.651060775    209.053975552    160.770154321    
220.692181417    46.2053433841    70.7779523509    95.6976631171    201.703277447    
255.221603233    68.0462946412    68.284568973    116.832453917    73.7705789075    
36.9463881585    100.870838884    172.216886178    174.973967472    68.0295251644    
58.5182441655    95.3298236106    299.12413427    318.075791828    85.7288437963    
79.9952050688    50.5310306082    48.0282477152    120.327258166    171.636077182    
84.4280430361    103.436768701    231.912644914    278.313192159    196.047535457    
323.07724575    308.894948447    302.716092083    44.5525941244    28.8030733175    
52.3344738373    47.8538703522    65.5398382425    68.47062219    38.2359495251    
34.2430345092    54.5984065172    64.212236123    72.2335937557    56.4569459874    
32.7829228238    25.0809164613    66.7176796622    81.0980098948    119.802550561    
391.643925795    393.658249373    391.285010146    385.858080332    382.599653532    
395.698974058    397.056915097    385.922351536    389.736168851    397.227970233    
394.411425629    397.619781904    397.052047623    394.490673038    393.342583132    
394.470363366    395.780751865    335.07562707    310.725769311    267.384249342    
394.070636967    393.244877217    383.697306953    388.003076094    380.960925725    
379.121318041    387.5437468    393.291384466    392.569991844    389.960974766    
384.130091412    386.605071128    382.485854744    382.619019614    358.139310312    
374.257876    348.921497316    390.56372511    391.753132029    384.21287593    
389.996187101    375.859726546    386.962428248    372.289622464    376.305034488    
396.964172997    393.698432601    388.909782862    384.949882933    395.231312614    
386.164664741    393.180823704    389.341735464    391.103441993    333.876353371    
353.830342096    362.260278394    373.339446439    342.448954018    380.783100441    
339.344153173    360.294890079    361.621416291    388.021923335    386.696491587    
385.589993827    168.957489193    94.7013993909    41.5719435107    65.5645221599    
88.6822808495    146.963570758    44.0271590085    80.944291586    134.69941234    
87.8683096801    166.585734532    105.3787117    104.6665993    86.557012374    
169.805961029    353.184952262    364.155678759    342.593289378    265.390121312    
244.394402628    304.138062616    246.358113605    297.98416542    309.009461501    
360.917052976    309.971859833    255.279467596    280.199722957    334.789321011    
358.211844653    358.739753073    321.014999631    249.185854603    209.382714887    
194.681007835    201.172397444    125.150238232    80.2678012402    42.8502593597    
43.67722911    60.2470537891    116.538492197    177.134326201    94.5361751414    
115.551268085    123.145990952    50.0898634919    135.460483038    104.514382163    
73.9711854021    68.4037494479    44.439372666    25.4624558617    47.7019885682    
28.39387964    66.958360369    71.6996737582    108.952080323    383.061367766    
390.522945854    366.971221302    379.790088776    379.094574643    339.345250009    
350.315913478    388.196462067    370.89339997    372.970231136    356.090591284    
215.166736689    283.139286678    263.214386634    208.993358788    171.153146781    
143.359348551    130.275498133    164.849052674    29.8516665169    32.5821491408    
169.723101351    119.307380618    143.096621976    387.386249054    387.522658339    
361.60984251    379.068445134    380.532780785    386.300844827    391.468629315    
373.719176594    353.574009439    378.091444973    339.928128816    219.452282205    
176.652648481    234.464377152    275.624015637    208.195851313    285.529360657    
274.817432372    257.631517495    207.035543732    359.937508628    387.223933968    
387.242855343    390.359906832    393.211008187    363.773248911    396.129611528    
392.580426435    392.826605574    387.896195019    376.367727915    359.744282849    
396.194633016    395.186860051    391.761946838    296.592830728    381.33336926    
284.353327546    264.145491092    381.584318758    381.811730165    383.396382466    
132.698427133    138.630864921    359.789999483    359.184058502    369.207808402    
297.833705473    286.267561499    264.765537377    226.931240616    214.393075277    
215.501796204    196.331874737    181.344842844    188.176104762    151.173962695    
160.953067726    149.424018812    249.758554277    391.791658106    396.983147614    
392.073893598    386.406637044    392.88262188    380.828828145    380.254771542    
398.245247731    397.330744666    387.439832802    381.790835883    383.145155069    
381.16183002    378.529082565    375.841145595    378.598831644    384.203849316    
388.31031708    384.356268468    360.521961322    374.498710543    376.322928596    
379.933421488    364.336926769    341.136335149    355.030072154    351.490858886    
323.862254969    297.611661724    329.930730757    293.580399377    286.474123465    
292.583157937    272.50396979    232.763748914    341.025554139    329.0726405    
361.915855745    367.48202835    207.795303415    198.574842551    181.800092319    
189.343020868    218.858213774    231.155108794    170.773266602    179.82885422    
144.779998104    163.533935488    152.271002268    194.663543212    141.164740709    
115.728124544    159.155366457    98.0851698369    148.372639312    150.092152134    
172.522069238    160.927710358    192.573891809    197.6801797    168.966416313    
176.69266239    188.604947135    287.653378214    297.633551945    240.3080658    
255.385284778    276.944735237    295.476756613    264.129509441    296.637646852    
291.881156745    311.979029235    252.23543047    328.221745216    166.264031232    
203.274245596    193.865981306    252.539271109    197.038959225    210.373681646    
239.142856645    357.170389549    369.927639675    367.117142265    361.832318605    
360.004254852    379.269106724    377.310631919    375.821505741    371.236152862    
352.891013286    365.20192112    357.951500606    372.09028608    350.494235011    
367.337486122    364.943980797    363.237091626    357.496041529    377.297817542    
252.294891858    275.102233013    277.180749154    231.84219125    257.92128923    
334.474824389    347.454093961    331.54554254    330.738868515    335.48815063    
320.854608365    328.468758288    219.302846396    190.47000805    258.668026928    
264.740949928    274.916323533    243.771690448    240.787794643    298.808290454    
282.43907065    301.471607443    283.843303338    157.575474499    193.794153001    
192.479199665    210.470844778    165.069336313    231.744987559    305.236323715    
330.786213251    310.948688215    303.174271348    334.494148979    334.780922769    
327.786890063    326.238042218    294.584916958    323.34413232    337.230687539    
344.269138036    346.165041405    340.633956562    303.31841344    328.54050715    
216.610792699    235.67866678    246.805468551    237.846964666    241.492929931    
341.044343583    341.721408627    325.287384631    340.584881129    333.062546472    
310.39878785    330.609013897    335.321630636    317.392312822    317.083840251    
348.504042971    337.050205886    326.969611262    324.689662198    343.94969914    
349.659468882    355.519199861    293.137152481    279.007206937    310.944548773    
311.111731726    317.421905128    350.455616439    244.410375024    258.302928861    
272.086608849    193.588217892    240.949336924    42.6005166126    93.9493572446    
33.5422594022    232.326516692    248.720673737    260.638015195    246.964520876    
242.605539541    
0.476491648681    0.476890917248    0.452007769212    0.473184182715    0.449984049072    
0.430402298977    0.463598535625    0.482815619744    0.482268843024    0.457312270104    
0.478222631192    0.459491914319    0.455529330835    0.477011904122    0.455054006596    
0.453883508112    0.423951053182    0.461085919692    0.478446929996    0.457563797753    
0.438877202206    0.477703903768    0.477573304367    0.457809624181    0.414621367521    
0.390092849227    0.458064810797    0.477798797593    0.455752604943    0.453462806389    
0.479017122618    0.434207832886    0.418060799155    0.441769897851    0.475256309493    
0.475619954365    0.459412027794    0.382560714612    0.396301291554    0.449807390041    
0.454624864173    0.479114009753    0.479537347694    0.433624906065    0.426853581587    
0.462920951894    0.478990539331    0.425332067632    0.435873925156    0.4404002687    
0.391570787667    0.379091583507    0.378433098855    0.458775134229    0.478163678597    
0.453341682965    0.455421169925    0.433914368162    0.435971756342    0.475344545379    
0.476232408734    0.453884780074    0.460473670092    0.450518422894    0.454643348422    
0.474706677518    0.475187782832    0.447563946605    0.426998354615    0.386067009348    
0.0735965979934    0.0359810858373    0.00721660783215    0.0185558625623    0.0883384350376    
-0.0195499931782    -0.0533641680423    -0.00887501345177    -0.0366960119467    -0.0938652429706    
-0.108501235987    -0.106765200294    -0.069193381898    -0.0828199011324    -0.0426789183248    
-0.103496763152    -0.144603109267    0.368171859323    0.360205515567    0.381421350642    
-0.135935098213    -0.141066091841    0.0898115005509    0.110308058961    0.145318877862    
0.047740707035    0.0613389327227    0.0639041136944    0.101238793748    0.0368524000028    
0.137646908495    0.0918569896761    0.289408276612    0.264795237915    0.274365094572    
0.234073655778    0.326208305803    -0.149086515755    -0.0577074912666    0.125157634878    
0.165694766972    0.183711957535    0.186990378943    0.221323096451    0.180551418046    
-0.12820328579    -0.0894727321335    -0.0664449909531    0.0535014658249    -0.0033544565589    
0.0357256070024    -0.0077710658995    -0.0306176201622    -0.0490338011907    0.239179570709    
0.238214555953    0.219944303855    0.28270386186    0.317047229105    0.260775894694    
0.307266217756    0.276047713397    0.214599181224    -0.0729356455961    0.00830015722264    
-0.0441690995367    0.390265244991    0.431870851183    0.474588211835    0.452227091398    
0.434405140422    0.383682311203    0.474641629464    0.432323866381    0.381181483204    
0.432040284268    0.389491233273    0.43113753639    0.439579202493    0.430551527715    
0.400976467709    0.325194151856    0.357206619492    0.383688499455    0.408528426032    
0.40581130475    0.347372089397    0.404764401744    0.364940203754    0.287885812759    
0.354743020626    0.327602293195    0.366252972382    0.329574780748    0.305337904629    
0.377063345313    0.356945340488    0.331743594324    0.360012404037    0.425332897609    
0.378396549261    0.379092661309    0.384939214154    0.428833304793    0.472620929155    
0.472752203357    0.451074646005    0.425958948117    0.37868905839    0.428224536717    
0.436127485197    0.394467582199    0.457011139366    0.392193064331    0.399050328158    
0.433600775736    0.433688875714    0.45620913006    0.477710410725    0.454636204527    
0.4776304429    0.434439961538    0.431075368381    0.396595788949    -0.0576818667987    
-0.0618723102512    0.0456611387881    0.0558793267968    -0.0152592103232    0.19946365796    
0.246308887139    0.174386625684    0.151090881985    0.116743930127    0.160853200929    
0.356931314527    0.298792557727    0.313206894235    0.37705899557    0.371636340829    
0.363632331435    0.37566376969    0.372239854731    0.474853501455    0.475151955293    
0.375194196217    0.395325024701    0.382089691319    -0.115002993411    -0.162654631316    
0.134417860174    0.130778330358    0.0956876015566    0.198242716949    0.167743991562    
0.15244256704    0.151795441377    0.119937721341    0.220815615608    0.371413563172    
0.363444132895    0.342917119387    0.309333854876    0.334700747804    0.288273008647    
0.331886622042    0.314608613402    0.350289943248    0.125046287096    0.0282976414784    
0.00774803536567    0.0083174352614    0.0607994729187    0.062079167729    0.0580349039984    
0.0226427602307    0.0970050357951    0.0232894287235    0.047595757106    0.11938798517    
-0.109878711848    -0.0804224578207    -0.0726853822994    0.266174124549    0.294721954263    
0.301956635354    0.338643563188    -0.00734379711641    -0.0606826538005    -0.103837242337    
0.38142796413    0.379829904189    0.0579738898012    0.0787400362873    0.0109051075503    
0.249350970214    0.264137567261    0.294622425435    0.3490215121    0.3326403083    
0.368137661124    0.397599052595    0.356336124705    0.348776957224    0.36565182151    
0.344191722035    0.366958920397    0.286849231276    -0.0315299256865    -0.0628746813068    
-0.0252687848662    -0.0654166683221    -0.0965224929502    -0.0831980336445    -0.0278686817422    
-0.0573804276474    -0.00831940837445    -0.0593042170468    -0.0262806126693    -0.0683452621731    
0.0155895211332    0.013729392788    -0.0684321432428    -0.0696789118741    -0.129599772768    
-0.145970949581    -0.112403697573    0.0857348876298    0.04274949083    -0.0398027413549    
-0.0384636434934    0.0405919374048    0.150782443834    0.104264281798    0.133632580943    
0.207238125476    0.230865168397    0.177846355086    0.236368149711    0.303513891984    
0.275802690129    0.275453418582    0.309102062313    0.184161554243    0.240179718113    
0.0018995034662    -0.0358188410106    0.272482052305    0.279690064862    0.312469252275    
0.305396097191    0.269876453466    0.248437667835    0.317945349803    0.321128808239    
0.354588487785    0.324708540109    0.354728964806    0.287335986783    0.359169776283    
0.380309455068    0.349638036386    0.402449998287    0.372198251324    0.366043552905    
0.346682033163    0.345569151076    0.342542074006    0.329159805648    0.361672964274    
0.334712673493    0.32585047593    0.24715062865    0.21449681729    0.296898462275    
0.245920957382    0.212839592448    0.209529307487    0.220076209999    0.175012730786    
0.219733056053    0.169547092039    0.274975664283    0.171410237117    0.380780328839    
0.297387762041    0.306464508916    0.271655907797    0.329736534733    0.324369211415    
0.267505993798    0.0308016474518    -0.0442448606736    -0.0147266319496    -0.00055803209603    
0.0238118785054    -0.109449743469    -0.0293787233865    6.89340729433e-06    -0.018204419152    
0.0381515512337    0.00537609765984    0.0555276017839    0.00714911646819    0.140883711811    
0.0999997205457    0.0725731965495    0.0543792557002    0.0962140931804    7.88618618533e-05    
0.27520406019    0.272372205037    0.260204184486    0.301827395063    0.250274871488    
0.102573081493    0.0689004045399    0.119155902956    0.0994722096605    0.0668118643489    
0.108763904996    0.117425137808    0.255454643449    0.30757754847    0.233491204967    
0.236834833375    0.222488636711    0.273107010509    0.277371715199    0.199495999924    
0.205211742585    0.182143318947    0.18655900569    0.352740004946    0.343707802982    
0.309267831975    0.289742146778    0.349396500075    0.260812364156    0.15301365901    
0.0789501641947    0.124742337631    0.134794674462    0.0814354771418    0.0554053874132    
0.152015101674    0.139989497471    0.161802713326    0.1279647673    0.131318323306    
0.103195077551    0.0935857061643    0.120092091243    0.132469540859    0.0775219530847    
0.295161943248    0.261434301756    0.255402191739    0.238547462977    0.228974268214    
0.0481912530721    0.0609283598265    0.0773575113758    0.0205129240182    0.0429922146735    
0.111619379094    0.195300949991    0.17436285467    0.205018732387    0.182761924621    
0.0747766441555    0.0966277293984    0.144906734823    0.132875820355    0.0657537293044    
0.113815567409    0.0799253066704    0.159399879941    0.188287751697    0.15394768493    
0.183955160988    0.164773440229    0.084637882553    0.246121182369    0.239355149804    
0.202191830063    0.400999429176    0.44389176334    0.482694566848    0.481912735269    
0.483250409213    0.235980181646    0.21144666573    0.195951647684    0.215254481492    
0.217539358276    
4     5     6     14     
6     5     4     3     
3     6     5     2     
2     5     3     1     
1     2     5     20     
6     5     2     20     
7     8     9     148     
9     8     7     10     
10     9     8     18     
11     12     13     35     
13     12     11     7     
11     13     7     148     
12     14     15     35     
15     14     12     4     
4     15     14     6     
6     14     5     20     
15     14     6     83     
16     18     10     8     
10     18     16     17     
8     18     9     24     
16     18     8     24     
19     20     5     21     
5     20     19     1     
1     20     19     23     
1     2     20     61     
2     6     20     61     
19     20     21     23     
5     21     20     14     
21     20     14     35     
22     23     21     81     
21     23     22     19     
21     23     20     81     
1     20     23     61     
9     8     24     148     
9     24     18     25     
25     24     18     27     
9     24     25     148     
26     24     8     82     
8     24     26     16     
25     24     27     84     
21     35     36     81     
36     35     21     14     
14     36     35     11     
20     35     21     81     
14     35     20     83     
36     35     11     148     
14     11     35     12     
15     35     14     83     
12     35     15     13     
11     35     13     148     
13     35     15     37     
37     35     15     83     
13     35     37     82     
34     39     32     33     
32     39     34     40     
40     32     39     43     
40     39     34     90     
33     39     32     43     
34     39     33     38     
36     41     42     30     
42     41     36     25     
25     42     41     90     
25     41     36     148     
30     36     41     81     
30     41     42     85     
32     43     40     44     
44     32     43     45     
44     43     40     84     
40     43     39     84     
39     43     33     89     
46     47     48     50     
48     47     46     49     
49     48     47     51     
49     47     46     86     
50     46     47     63     
48     51     49     52     
52     51     49     53     
49     51     47     86     
53     51     49     86     
52     51     53     54     
54     51     53     77     
55     56     57     59     
57     56     55     58     
58     57     56     73     
58     56     55     78     
55     56     59     98     
57     59     56     62     
61     2     6     60     
6     61     60     83     
6     20     61     83     
57     62     56     73     
59     56     62     98     
46     63     64     96     
64     63     46     50     
50     64     63     87     
46     47     63     86     
58     65     66     129     
66     65     58     67     
67     66     65     68     
67     65     58     78     
68     66     65     92     
68     65     67     96     
69     70     71     60     
71     70     69     72     
72     71     70     79     
72     70     69     92     
71     60     70     83     
56     73     62     91     
58     73     56     80     
64     74     68     96     
68     74     64     72     
72     68     74     92     
72     74     64     75     
75     72     74     79     
75     74     64     87     
54     77     53     76     
76     77     53     107     
53     77     51     86     
65     78     67     96     
58     67     78     55     
58     78     65     129     
67     78     55     107     
56     78     58     80     
55     78     56     107     
74     79     70     112     
70     79     74     72     
72     74     70     92     
71     79     72     37     
37     71     79     83     
37     79     72     75     
70     79     71     83     
37     79     75     99     
75     79     74     87     
56     80     73     100     
58     80     78     129     
56     78     80     100     
20     81     23     94     
22     23     81     31     
22     81     21     30     
31     81     22     30     
23     31     22     122     
23     81     31     106     
21     30     81     36     
31     81     30     29     
31     81     29     106     
30     29     81     85     
41     81     35     88     
35     81     41     36     
36     41     35     148     
30     81     41     85     
20     35     81     83     
26     82     37     99     
37     82     26     13     
13     82     26     8     
13     82     8     148     
8     82     24     148     
26     24     82     99     
35     82     13     148     
37     82     35     83     
79     83     70     112     
37     71     83     15     
37     83     79     82     
35     83     82     88     
82     83     79     88     
37     82     79     99     
71     83     15     6     
6     83     60     71     
70     83     60     61     
20     61     83     94     
20     83     6     14     
20     83     81     94     
35     81     83     88     
39     84     43     105     
40     84     39     90     
40     44     84     27     
40     27     84     25     
25     84     40     90     
25     24     84     41     
24     84     41     104     
25     41     84     90     
25     24     41     148     
81     85     29     135     
30     29     85     28     
41     85     81     135     
38     85     39     117     
39     85     38     34     
34     39     85     90     
34     85     38     28     
34     85     28     42     
42     34     85     90     
42     85     28     30     
28     85     38     29     
42     85     41     90     
29     85     38     102     
51     86     77     114     
53     77     86     107     
63     86     47     103     
46     86     63     96     
47     86     51     114     
74     87     79     111     
75     79     87     99     
64     75     87     50     
64     87     74     63     
63     74     64     96     
63     87     74     111     
83     88     81     94     