Title = " tecplot file for 2D Cavity problem " 
variables = "x", "y", "z", "velX", "cellCentroidY" 
Zone T = "nmesh0" N = 163 E = 466 DATAPACKING = BLOCK, VARLOCATION = ([4-5]=CELLCENTERED),  ZONETYPE=FETETRAHEDRON 
0.5    0.5    0.39956721182    0.5    0.2    
0.23892791459    0.23153735228    0.3    0.5    0.4115682451    
0.5    0.051624035259    0.1    0.048148862371    0.0    
0.13209314197    0.13736922805    0.41578080408    0.5    0.5    
0.5    0.5    0.41276644951    0.5    0.5    
0.41672585222    0.5    0.5    0.41256688197    0.42913825798    
0.5    0.5    0.42836019649    0.4    -0.032990049868    
0.5    0.41165295243    0.5    0.42168983817    0.5    
0.41527977586    0.5    0.5    0.5    0.5    
0.40574300289    0.5    0.32618201123    0.41569638252    0.5    
0.5    0.41802930832    0.32744805705    0.41065472364    0.5    
0.32383922021    0.41575962317    0.40414276719    0.5    0.05350411837    
0.024046033621    0.045422997231    0.28412730101    0.33738765121    0.32846847876    
0.15323724917    0.11026169429    0.10691646487    0.22844861004    0.29309883714    
0.32237941699    0.23439248765    -0.064485211352    0.1615903074    0.18354015052    
0.1743232997    0.29473999143    0.11269637197    0.23988850923    0.24030808209    
0.21497009695    0.2551958203    0.30577623844    0.33595085147    0.21983735443    
0.21220782399    0.10177732259    0.26118835807    0.41627711058    0.5    
0.42226392031    0.41622126102    0.3400972769    0.33426624537    0.40772935748    
0.5    0.39354494214    0.5    0.404743433    0.40442427993    
0.41080650687    0.42240139842    0.40643143654    0.42564427853    0.23029404879    
0.022982079536    -0.0022199044737    -0.0013214884093    -0.059786099941    0.33957649135    
0.30595946312    0.34128198028    0.34028389127    0.10747696459    0.17720426619    
0.33006593585    0.35493135452    0.39897340536    0.32872989774    0.32177346945    
0.4085174799    0.5    0.36976534128    0.050998203456    0.235117957    
0.16359171271    0.27145576477    0.42380711436    0.33005258441    0.29873308539    
0.3027382791    0.32073333859    0.32815802097    0.27065211535    0.34152519703    
0.40529754758    0.28594651818    0.26374059916    -0.0916967839    -0.072593301535    
0.041503503919    0.12168388069    0.19700033963    0.13448160887    0.23640879989    
0.33997377753    0.20185385644    0.36965695024    0.30533906817    0.20047597587    
0.22903570533    0.31950846314    0.25187698007    -0.0049792267382    0.32498046756    
0.089858144522    -0.021785223857    0.25666350126    0.33016222715    0.31448689103    
0.247710675    0.21671915054    0.43577221036    
0.39969751098    0.5    0.5    0.5    0.5    
0.5    0.41131431    0.5    0.41188366054    0.5    
0.5    0.5    0.5    0.43198898891    0.5    
0.41540583426    0.5    0.33947748232    0.34029280491    0.3    
0.4    0.23878142205    0.23802795747    0.2    0.5    
0.5    0.41638409393    0.41261783441    0.5    0.42790726717    
0.5    0.42838880419    0.5    0.5    0.5    
0.32892737464    0.35470357537    0.32329967478    0.38945969939    0.15569507495    
0.18050545454    0.14815816148    0.23766310229    0.056480263476    0.069117591781    
0.11606233567    0.13091126552    0.28217272988    0.28777328134    0.28424562361    
0.32682466149    0.38527554274    0.5    0.18327124417    0.17398359979    
0.17219533633    0.13647533199    0.10724130273    0.10954857444    0.5    
0.40536576509    0.33852508245    0.5    0.4055327177    0.5    
0.5    0.5    0.40951111913    0.5    0.41416463256    
0.5    0.5    0.5    0.32314076394    0.41706010699    
0.5    0.41352653503    0.40081068873    0.10542630627    -0.0063659954075    
0.047655455768    0.32669885795    0.33583059907    0.39862014685    0.22402612177    
0.29128858447    0.29881185293    0.16721591353    0.26167833805    0.229218125    
0.31865110993    0.41635105014    0.5    0.4051028192    0.037101287395    
-0.066395926384    0.098883368075    0.23650637431    0.14297755063    -0.080692149699    
0.21015691757    0.34662178159    0.39572280645    0.42559543252    0.42262995243    
0.42029249668    0.5    0.40343809128    0.40982949734    0.051370315306    
-0.0047878199257    0.41375112534    0.5    0.38607373834    0.20481482148    
0.23920804262    0.33473542333    0.21166716516    0.11139494926    0.11394380033    
0.013350881636    -0.0040942735631    0.064577847719    0.34383583069    0.33582484722    
0.30417972803    0.318215698    0.30121514201    0.16664245725    0.22263081372    
0.13677279651    0.03692343086    0.025269117206    -0.032839149237    0.31281200051    
0.27081358433    0.35170808434    0.27493157983    0.35465326905    0.3250862956    
0.32977220416    0.22956226766    0.41255375743    0.31652632356    0.22946728766    
0.29424312711    0.24808271229    0.18749162555    0.29553985596    -0.026395486668    
0.062724344432    0.20585776865    0.32520911098    0.29079681635    -0.0011573025258    
0.25087565184    0.2582000196    0.12977704406    0.095714308321    0.23786218464    
0.16071335971    0.1858946681    0.15739028156    
-0.33866664818    -0.4    -0.33849824765    -0.3    -0.5    
-0.41456064362    -0.5    -0.5    -0.23538588605    -0.23502995202    
-0.2    -0.43246794108    -0.5    -0.5    -0.5    
-0.5    -0.41665129901    -0.5    -0.41757449073    -0.5    
-0.5    -0.41433816876    -0.5    -0.5    -0.1    
-0.034013318223    -0.03482816    -0.13515066132    -0.13472599842    -0.5    
-0.5    -0.430184567    -0.43012969401    -0.5    -0.41677308049    
-0.26209446696    -0.22357727587    -0.17325149594    -0.39547523856    -0.15709710907    
-0.11217790842    -0.06347358832    -0.11596301325    -0.13308059917    -0.029669427208    
-0.014157147147    0.050671573191    -0.5    -0.38759097457    -0.33086023526    
-0.067293913511    -0.07909090817    -0.06652190812    -0.38553187251    -0.32616159469    
-0.5    -0.5    -0.17599338293    -0.23780244737    -0.33962245788    
-0.39628782868    -0.5    -0.3307702295    -0.31030526757    -0.2616473045    
-0.15585884128    -0.24055238104    -0.17987951636    -0.2292807784    -0.22107885778    
-0.17230846118    -0.11349106293    -0.3275702142    -0.5    -0.38605517149    
-0.32695359205    -0.11744047701    -0.30237615108    -0.5    -0.5    
-0.40872132778    -0.5    -0.40458709002    -0.5    -0.5    
-0.41133615375    -0.40432164073    -0.40178945661    -0.17723600566    -0.22976599836    
-0.30431655049    -0.161204651    0.051700528289    -0.0074634975754    -0.10843267292    
-0.1328558622    -0.29801934958    -0.0051805641003    0.0837681517    -0.1657396853    
-0.022460795939    0.0029560043477    0.077648535371    -0.28936305642    -0.29811424017    
-0.3056512773    -0.23662913003    -0.17091374099    -0.26719513535    -0.5    
-0.4174105227    -0.41521838307    -0.41754678867    -0.41986095905    -0.41892081499    
-0.40299513936    -0.1412307471    -0.27692452073    -0.43074804544    -0.094377815723    
-0.20341610909    -0.23363482805    0.052292995155    -0.23954698443    -0.16880889237    
-0.31372946501    -0.27856189013    -0.10024724901    -0.33120939136    -0.15389552712    
0.0090291341767    -0.15957440436    -0.050448991358    -0.10657566041    -0.044781114906    
0.049918755889    0.047008216381    0.0049936147407    -0.1924303174    -0.32601997256    
-0.33499318361    -0.36035710573    -0.2097568959    -0.19554537535    -0.32144889235    
-0.33216997981    -0.1201742515    -0.19581690431    -0.20140074193    -0.024072546512    
-0.085743904114    -0.059111025184    -0.075362809002    -0.15602079034    -0.24673835933    
-0.26400905848    -0.25361275673    -0.31545513868    -0.23053814471    -0.26838359237    
-0.11375630647    -0.033421739936    -0.23034669459    
221.444793505    207.039429122    209.083039388    200.415009783    207.408126708    
209.315873383    203.399743843    201.049053536    204.388818522    270.863531137    
201.48612624    131.091554388    231.829325229    149.183678916    193.467822423    
175.260444941    198.902541658    382.338083471    391.104024278    370.475347185    
391.043771099    397.07578193    393.545458493    203.893074813    202.450556348    
210.110832809    269.713333207    364.624734201    336.151191528    225.487800975    
222.866590749    219.77573472    272.146107243    241.251407282    171.767161108    
348.496629425    353.371555442    325.4665022    319.755185751    314.979718752    
366.657410093    372.068417358    348.52644524    242.676574624    152.520055287    
164.171607198    224.645644937    358.971914582    363.81961428    325.732617925    
389.474307902    387.086551073    374.926668595    373.69634721    383.185883184    
382.656866679    379.536886263    388.119996107    382.668263236    376.706973747    
381.384584827    388.852319875    362.261958806    370.567080633    388.467090578    
391.725194485    384.167447817    341.184983687    350.095908785    387.058401998    
324.524149493    353.176004624    306.358909433    335.532934681    104.421842833    
89.5293773324    137.514755217    117.952310845    235.308685559    216.580972693    
211.484364309    391.121552288    380.632533603    371.002576094    377.808596106    
389.205627967    392.083597839    395.531153149    385.240618363    384.667207303    
390.085611569    388.468946096    374.074323527    379.170997088    58.5886740068    
75.6236637135    125.022241444    206.854867541    95.5556933994    65.1303558884    
99.050451045    88.2872794551    61.1010779382    30.1196666394    54.345908027    
31.9595156083    107.357270486    95.3369705432    60.9850235915    54.5514425758    
313.624814312    321.942495936    271.783857895    300.001430314    197.840764494    
101.143156519    209.395345691    53.7420672655    91.2425377871    80.906887135    
33.8211533156    50.9640526238    81.4596323822    108.623801935    91.761722124    
130.141630222    122.866115686    59.4305423858    38.5192490334    56.2596844461    
64.6220756427    106.334971418    133.724504591    109.681867255    374.646254014    
356.483857044    320.43378463    332.307357454    313.907904639    328.432832843    
372.546924877    346.520228979    358.944450809    358.006913607    370.621451568    
380.037719398    380.622789932    354.67042845    357.976846176    368.675620148    
286.498215141    235.738170318    252.662392726    296.709114291    381.576618501    
388.309585773    385.448130883    379.417756675    386.134054213    386.25521025    
377.835342981    355.055362975    369.456358783    365.324623438    377.15005298    
362.090290328    325.947902944    341.373260227    364.263820163    377.096932825    
315.979890978    377.770413955    295.806419499    381.977090348    336.6007166    
372.734059365    357.499353887    310.361237399    315.088409096    294.191820537    
180.929824875    58.8215248769    166.282103723    145.878861392    104.586345907    
324.799988012    348.886695819    300.411293857    311.772052209    259.260843985    
208.933364712    174.823278292    55.3288103533    176.284988862    361.214940372    
383.025293102    390.411869775    374.690892683    360.546164481    368.622542059    
386.32646765    383.839855908    365.065867343    355.10113728    373.041536154    
369.047618548    371.979793446    342.236362169    341.966059519    320.204258897    
170.956398148    200.289932352    209.360935558    189.325369296    259.547517925    
166.82263187    276.134193333    257.504306174    264.808093246    196.255782358    
355.856028455    321.012299546    185.518987166    219.189092385    122.309206224    
202.857672176    105.674609332    58.0693599387    85.8364577705    92.2039883889    
177.509006101    223.975805783    239.10472192    203.67632216    35.9666871797    
123.749023844    177.27996738    23.8930499926    80.0986804047    53.8142753956    
42.5523267074    110.283004868    150.728555829    115.125628519    75.4378594558    
127.918099827    168.240530968    29.9246446348    27.7015348862    79.2553444079    
123.435539061    81.7699528235    391.110993149    395.675748059    391.208455798    
385.561210345    242.574471387    194.555444717    269.329418372    218.493237567    
314.406423994    292.366922128    95.3163583147    136.390713316    57.7058546604    
53.2364602318    112.694061528    78.7831226857    319.672075821    352.361816853    
198.492131994    189.355007857    101.808931726    338.531445721    294.712432953    
359.449755397    299.992477207    340.487093097    250.668000187    310.331010559    
248.712205926    268.478256503    341.082227279    338.28374964    362.43127161    
363.245925772    375.054238765    378.348778085    319.738545881    320.307446291    
386.461513444    339.634623196    388.828975135    376.969915359    379.76455272    
355.278975267    338.27637795    221.815491644    272.495068837    178.300901764    
249.94287496    195.277992133    366.994428422    378.494725524    379.819840404    
385.54742124    354.608506912    343.219410851    383.669108708    326.390972321    
366.016986472    396.722715234    395.725378978    364.002553553    368.6895226    
367.959400523    359.82774905    341.864665888    360.390152335    348.93079645    
377.261889854    388.317044392    391.390670531    394.671141084    395.501139504    
371.139524568    382.143512251    373.293959289    379.766137496    350.347092207    
110.808628165    125.807018267    143.150029292    171.371241938    168.737599981    
149.281495627    140.838413667    200.664776819    191.344374417    138.914436564    
160.287202297    229.989040373    212.220994872    279.129216506    264.29073029    
186.292624856    249.140147746    226.713947745    252.350293587    162.05693363    
267.582149433    383.219148164    380.862570288    290.883140447    288.481015925    
275.523380775    242.892256183    365.595375402    317.343941741    323.850378158    
342.834321637    361.753957013    374.187707247    351.088657625    357.50199561    
350.764826068    270.594811268    280.947711444    311.839333557    327.684834364    
334.12975118    358.531491547    352.904665726    367.131766807    376.15712432    
364.731072104    352.936607399    347.374871    347.233660075    337.109413174    
335.9634067    173.077711901    197.645186021    214.42009559    245.303048867    
250.867812843    187.824437756    213.689086894    273.228391349    155.816889323    
175.747805481    199.194481477    222.821081993    183.554677618    185.744426219    
195.352323345    241.636561798    315.668949691    287.830555677    290.782441821    
178.177341368    190.604383727    203.83348949    192.415582137    167.659413682    
29.9823711893    23.6496375007    31.1990853089    50.0660013819    137.567922464    
210.471142436    163.103859814    331.086261565    343.233647541    315.905150038    
287.429323856    292.45322996    294.082838039    274.312106072    326.088824329    
345.860899654    334.007170496    360.24323292    326.618671955    333.656095783    
311.898420789    356.071616189    296.256030499    239.038810112    217.350600248    
266.018207369    289.540003455    349.972440444    322.674133355    317.211803537    
312.546679444    285.723251219    248.939102857    245.543606937    257.160053587    
255.174921879    237.499440645    235.614368074    278.329815301    205.541277101    
183.815594821    368.823647474    230.267370241    216.922233709    210.598102404    
185.914219535    358.039418276    363.058932506    347.696153873    336.951284398    
355.488725293    368.219593847    330.842446639    335.750789465    322.795424043    
352.319564184    276.854744912    303.242632222    393.109644218    386.815164525    
394.110253214    
0.448632252615    0.474050824903    0.457172163521    0.455527397225    0.477234560095    
0.454905719822    0.4601890577    0.47749345692    0.456156358854    0.461456768754    
0.483035004998    0.482489743842    0.434179105748    0.477525264534    0.478431627771    
0.450191744344    0.457100625841    0.316514436231    0.34559394896    0.367522834845    
0.266404513568    0.244897955561    0.21459054991    0.458505953395    0.477690936506    
0.448770133203    0.464097982003    0.440796269983    0.411074518526    0.458077461885    
0.481809010563    0.482019313742    0.436527326594    0.453231177553    0.457752806524    
0.316569049718    0.355069173073    0.376517631331    0.379969804503    0.428967839142    
0.38942729242    0.388360202087    0.360835542537    0.433636223079    0.451586586708    
0.469867416976    0.429108549065    0.388045719904    0.338780800203    0.392505130316    
0.134157692058    0.180643088189    0.194537846216    0.209313766061    0.123917085472    
0.106148727487    0.151525832811    0.116765352621    0.0916876953252    0.261970092157    
0.287241585475    0.290733780406    0.311387477479    0.30829642597    0.288092475849    
0.291234675551    0.247769754074    0.33806970729    0.334667949957    0.236625807077    
0.368615483657    0.385172959283    0.428866250988    0.357543540622    0.448217009706    
0.469189712091    0.469164874636    0.446367372513    0.414097778823    0.450860987307    
0.429305783048    0.219644031633    0.214506272896    0.241141137088    0.236994792135    
0.15150388852    0.182976820223    0.189004665372    0.207854116528    0.132067094892    
0.106330183955    0.0713673794725    0.150872655386    0.0960698527932    0.475519303751    
0.475197299129    0.448341809842    0.431264972564    0.455521503037    0.475387401168    
0.458347432601    0.455305335737    0.45952997151    0.478274154962    0.477473668174    
0.478283535125    0.457110983072    0.456412932983    0.457013950311    0.457293409791    
0.361664450925    0.391660917278    0.435906208114    0.384655891011    0.431178303277    
0.478661923458    0.434331343379    0.479273099727    0.453773383901    0.460369387655    
0.478354445355    0.477765241866    0.436114392541    0.435456810305    0.455892773248    
0.429038309167    0.425687198479    0.456367100968    0.474833015098    0.474045819588    
0.452556660749    0.446441495326    0.426675051607    0.434776785033    0.337066689475    
0.368341521645    0.389371642392    0.341718222858    0.328503393625    0.367339946663    
0.338933227008    0.369844366359    0.287151705882    0.308769919158    0.259176402344    
0.279332633089    0.290412763701    0.286497670925    0.338074050628    0.261787449103    
0.36515895073    0.36627101539    0.395584259338    0.353048262149    0.17379424611    
0.16753759838    0.13912737589    0.20120895301    0.262701090406    0.22138869064    
0.201536945769    0.244404089495    0.189648655815    0.281024237844    0.28499512588    
0.283836977522    0.311443468817    0.314278423744    0.273237546386    0.336719127937    
0.324063338779    0.334456952691    0.382393702199    0.288522811463    0.368521841833    
0.259574679127    0.256483192072    0.290119139814    0.358053880287    0.377979433336    
0.388169703269    0.478835945039    0.395390241266    0.437456804362    0.478814038769    
0.361849790092    0.390331502318    0.435845823791    0.348057829141    0.402818422073    
0.438331282575    0.379637525135    0.475697035098    0.411735048239    0.109793176926    
0.053686473555    0.0775350749294    0.118818349128    0.111689621273    0.163070913352    
0.180077644215    0.208049222052    0.246726593382    0.233193902176    0.179716762304    
0.150789503897    0.113702072507    0.152364776027    0.177173562146    0.339858507471    
0.41477452702    0.374235489359    0.362759745338    0.429810716842    0.383894914765    
0.428618370843    0.353634359588    0.375902117883    0.345264300245    0.399306761047    
0.391142294809    0.434955712026    0.404471412594    0.371746430144    0.437312212692    
0.380749592984    0.436169130779    0.481242320125    0.482054212194    0.433993078746    
0.385064093388    0.357779244519    0.342858296711    0.398060785987    0.480056658177    
0.435628045669    0.389348381446    0.481396222928    0.437679025828    0.459650230156    
0.480437490132    0.456493095117    0.437839450153    0.431967950111    0.457639779984    
0.424186723823    0.388607614042    0.48069171021    0.480463071424    0.433227619483    
0.394147559756    0.430968961297    0.0361128524335    0.0370903142885    0.06549104101    
0.0651617487586    0.385358189299    0.394544080761    0.357712562768    0.36982269438    
0.432219291562    0.454291279993    0.477714484387    0.477650590046    0.477745482459    
0.47802515174    0.477068732675    0.477561237995    0.435390768357    0.394894064464    
0.37545458329    0.380518942284    0.469051339865    0.391883013313    0.390194642981    
0.364522807753    0.356110431558    0.336290166919    0.354611056971    0.32479951051    
0.347938224426    0.320483160408    0.279606672469    0.223752530961    0.222310226296    
0.231221068368    0.129823298104    0.106932124006    0.257495612981    0.27290601019    
0.229138208978    0.232989526109    0.232121555582    0.173788651558    0.176939447235    
0.250474081365    0.289514025771    0.35166950534    0.351764479086    0.373765170113    
0.359612792268    0.362629232803    0.164933392383    0.166269720162    0.159731679081    
0.225123469381    0.24308034115    0.276207173613    0.193429302358    0.259880542021    
0.216394459358    0.117564487415    0.109866993868    0.171200250333    0.174284493209    
0.111207722389    0.0739278668452    0.153965927067    0.0743842855445    0.146748104424    
0.00048856100985    -0.0239305051722    0.00803324162418    0.0449571085324    -0.000492027277973    
0.0488169176786    0.0822749283708    0.0778825724203    0.116316360612    0.116065464429    
0.395783257133    0.39410522988    0.3772938893    0.372390289064    0.373410612697    
0.368443712199    0.361306343366    0.347437268707    0.352012365941    0.39414452807    
0.383744486652    0.335079983517    0.354539197629    0.294448028234    0.286540738456    
0.362764529212    0.34048440415    0.347635843239    0.344010299115    0.390359941751    
0.33596733056    0.297130692414    0.274257279838    0.313759527496    0.278158504226    
0.311236543084    0.33387373476    0.341689038331    0.240055555543    0.226138680921    
0.201384819432    0.143125744806    0.138851750538    0.220548439829    0.14406068702    
0.215663018283    0.290107639074    0.277412276972    0.229248128446    0.213817223184    
0.166702950564    0.0534296733659    0.0892328526277    0.0628449150449    -0.00934709200428    
0.0164712135482    0.0238897530152    0.0591586748612    0.09771238605    0.0846918057578    
0.142802882396    0.365493538982    0.347076876539    0.353216678247    0.320698564913    
0.302024106535    0.34852800609    0.317071084951    0.265082685881    0.347439762863    
0.340713849926    0.343689665024    0.307486551938    0.340850983935    0.354696710877    
0.369312392946    0.330384085025    0.239454839625    0.281562978396    0.263123361133    
0.369137786905    0.345160743864    0.342829461562    0.338348768096    0.358705912934    
0.47762894344    0.47783938292    0.477840566171    0.455556817177    0.384424970163    
0.304427377895    0.339320232304    0.23199902679    0.174408897151    0.27351930045    
0.293531762445    0.269755229092    0.30088309966    0.303509420003    0.265460956805    
0.126120198372    0.17483805603    0.158532115378    0.180440489332    0.152261840124    
0.229113763871    0.197123742286    0.25342829382    0.294924356695    0.323196837569    
0.303322379743    0.287644986189    0.00743464824288    0.118273956791    0.154202582484    
0.175999922389    0.260807310046    0.278510079669    0.296971954749    0.266737896073    
0.251143874567    0.282321196009    0.293802620422    0.210149762539    0.299244418455    
0.313084924971    0.0364480270557    0.294831719838    0.285675465774    0.313972077685    
0.334888073025    0.136506930265    0.140500208755    0.163402965639    0.200243591104    
0.161170301431    0.114559910721    0.225736911415    0.227477654851    0.231659969539    
0.205967047011    0.201377851325    0.171867498482    0.164004445824    0.134923144716    
0.168578745512    
1     2     3     39     
3     2     1     4     
1     3     4     104     
5     6     7     75     
7     6     5     8     
8     7     6     112     
9     4     10     104     
10     4     9     11     
9     10     11     92     
12     13     14     16     
14     13     12     15     
12     14     15     35     
12     16     14     114     
12     13     16     17     
16     17     13     5     
12     17     16     114     
5     16     17     75     
18     19     20     49     
20     19     18     21     
18     21     19     39     
22     23     20     49     
20     23     22     24     
22     24     23     54     
28     11     29     92     
29     11     28     25     
28     29     25     52     
30     31     32     33     
32     31     30     21     
21     30     32     39     
33     30     34     112     
34     30     33     31     
32     33     31     2     
32     30     33     39     
32     33     2     39     
14     35     12     61     
36     37     38     89     
38     37     36     9     
9     38     37     92     
9     37     36     104     
1     39     32     2     
32     39     1     19     
19     32     39     21     
19     39     1     91     
33     39     30     112     
3     39     33     112     
33     39     3     2     
1     39     3     104     
21     30     39     18     
18     39     19     49     
30     39     18     112     
40     41     42     44     
42     41     40     43     
43     42     41     101     
43     41     40     89     
44     40     41     58     
44     41     42     95     
42     47     46     101     
46     47     42     45     
42     46     45     95     
48     49     23     116     
23     49     48     18     
18     23     49     20     
18     49     48     83     
50     49     19     91     
19     49     50     22     
22     19     49     20     
22     49     50     54     
39     49     18     83     
19     49     39     91     
22     23     49     54     
51     52     27     102     
27     52     51     28     
28     27     52     25     
28     52     51     128     
53     52     29     77     
29     52     53     26     
26     29     52     25     
26     52     53     94     
27     52     26     102     
26     52     27     25     
29     52     28     92     
22     54     50     55     
55     54     50     118     
50     54     49     118     
49     54     23     116     
56     54     57     119     
57     54     56     23     
23     57     54     24     
23     54     56     116     
40     58     59     163     
59     58     40     44     
44     59     58     121     
41     58     40     163     
44     58     41     95     
60     61     35     73     
35     61     60     12     
12     61     60     114     
12     14     61     114     
63     64     3     112     
3     64     63     65     
65     3     64     104     
65     64     63     105     
69     70     65     105     
65     70     69     71     
71     65     70     10     
71     70     69     72     
65     70     10     104     
71     10     70     92     
72     71     70     77     
72     70     69     143     
74     75     7     86     
7     75     74     16     
16     7     75     5     
16     75     74     114     
17     75     16     114     
5     75     17     6     
7     75     6     112     
6     75     17     76     
76     75     17     78     
6     75     76     105     
71     77     72     53     
53     71     77     29     
72     77     70     143     
71     70     77     92     
71     77     29     92     
29     77     52     92     
53     52     77     94     
67     78     60     106     
60     78     67     76     
76     60     78     17     
76     78     67     143     
17     60     78     114     
17     78     75     114     
76     75     78     105     
82     83     84     48     
84     83     82     7     
7     84     83     112     
7     83     82     86     
49     83     39     146     
18     39     83     112     
48     83     84     18     
18     83     84     112     
48     83     49     116     
82     83     48     86     
85     86     48     116     
48     86     85     82     
82     86     85     74     
48     86     83     116     
74     82     86     7     
74     86     85     115     
83     86     7     75     
83     86     75     105     
7     83     75     112     
75     86     74     114     
85     88     79     115     
79     88     85     56     
56     79     88     119     
56     88     85     116     
43     89     90     38     
90     89     43     40     
40     90     89     163     
41     89     43     128     
40     89     41     163     
38     43     89     128     
38     89     90     36     
36     89     90     91     
38     89     37     128     
36     37     89     91     
49     91     50     118     
19     50     91     1     
39     91     49     146     
50     91     1     36     
1     91     39     104     
50     91     36     90     
1     36     91     104     
50     91     90     118     
90     91     89     118     
37     89     91     160     
37     91     36     104     
28     92     52     128     
52     92     77     117     
29     71     92     10     
70     77     92     117     
70     92     10     104     
29     10     92     11     
38     92     28     128     
28     92     38     9     
9     28     92     11     
37     92     38     128     
9     92     37     104     
10     92     9     104     
52     77     94     135     
94     53     26     93     
26     52     94     102     
41     95     58     120     
44     58     95     121     
42     44     95     45     
42     95     41     46     