Title = " tecplot file for 2D Cavity problem " 
variables = "x", "y", "z", "velX", "cellCentroidY" 
Zone T = "nmesh0" N = 147 E = 466 DATAPACKING = BLOCK, VARLOCATION = ([4-5]=CELLCENTERED), ZONETYPE=FETETRAHEDRON
-0.5    -0.5    -0.41666113413    -0.5    -0.5    
-0.5    -0.5    -0.41568232088    -0.5    -0.41331855513    
-0.5    -0.5    -0.5    -0.41560975998    -0.41534302811    
-0.24401451815    -0.27857327461    -0.33351657523    -0.25818869482    -0.32791251751    
-0.2420310765    -0.27776193619    -0.33306600263    -0.32768036898    -0.15441928309    
-0.23984447934    -0.1544154289    -0.18403604627    -0.36108124256    -0.075540573349    
-0.12125059962    -0.12233015178    -0.1658810894    -0.21442145109    -0.23336877561    
-0.35869646072    -0.35903713107    0.018218039662    -0.030118683353    -0.031523656171    
-0.07705043303    -0.324375812    -0.29730021954    -0.38386720419    -0.5    
-0.5    -0.12862838805    -0.024988340214    -0.5    -0.5    
-0.41238322854    -0.40513378382    -0.5    -0.5    -0.40904137492    
-0.5    -0.5    -0.5    -0.41298130155    -0.5    
-0.5    -0.40931382775    -0.5    -0.5    -0.40122872591    
-0.40045493841    -0.5    -0.5    -0.41469320655    -0.41519010067    
-0.17534734309    -0.23570425808    -0.058995011316    -0.082493901253    -0.5    
-0.40482291579    -0.38823884726    -0.40467980504    -0.4099829793    -0.28851944208    
-0.41078579426    -0.41999131441    -0.43093168736    -0.093923687935    0.02540740557    
-0.15084071457    -0.43239808083    -0.21176297963    -0.31082767248    -0.25045061111    
-0.32854515314    -0.30683600903    -0.1001540646    -0.083267346025    -0.041165109724    
-0.31429108977    -0.32110860944    -0.33510330319    -0.31909075379    -0.12605653703    
-0.27375280857    -0.25071310997    -0.16738939285    -0.15926118195    -0.17177045345    
-0.19182032347    -0.0067209075205    0.06426165998    -0.29695540667    -0.32574671507    
-0.26442721486    -0.27116063237    -0.22049382329    -0.28730630875    -0.31333625317    
-0.33154094219    -0.34081944823    -0.26889336109    -0.18744929135    -0.19837510586    
0.044982854277    -0.089062400162    0.028138827533    0.049275837839    0.021336633712    
-0.089620292187    -0.047014314681    -0.23286023736    -0.097244560719    -0.18032833934    
-0.12954746187    -0.20950435102    -0.04713287577    -0.031658235937    -0.13722740114    
-0.10070315748    -0.019795352593    -0.019804503769    -0.038092400879    -0.094810500741    
-0.02923585847    -0.1170893684    -0.11430221051    -0.15042594075    -0.014718302526    
-0.058520920575    -0.25979873538    
0.43123768753    0.5    0.5    0.41478178965    0.5    
0.41536299017    0.5    0.5    0.5    0.5    
0.41059892718    0.5    0.41335376528    0.5    0.5    
0.5    0.42139291763    0.5    0.5    0.5    
0.5    0.42041674256    0.5    0.5    0.5    
0.5    0.5    0.41396617889    0.42175656557    0.5    
0.41362947226    0.5    0.5    0.41201668978    0.5    
0.42008012533    0.41915145516    0.5    0.41021424532    0.5    
0.5    0.5    0.41785821319    0.41844409704    0.41022239057    
0.31906824105    0.40041485429    0.41023689508    0.23814042066    0.14408802079    
0.17829310894    0.10964553803    0.12256216665    0.14729249522    0.10185126215    
0.050694709417    0.10756658526    0.22794557288    0.20018331707    0.22531189392    
0.23201529395    0.26090359688    0.3227499684    0.17300756482    0.11115130782    
0.29985645413    0.33696414241    0.32446482401    0.36509612203    0.41892319918    
0.39956691861    0.34484261274    0.5    0.4029161036    0.32651560129    
0.13689771295    0.30964159966    0.2782176137    0.3438500762    0.31110551953    
0.20444867015    0.18854786456    0.3814265132    0.43359217048    0.32341533899    
0.28139716387    0.054920803756    0.33910441399    0.33397328854    0.38990306854    
0.27609691024    0.22302916646    0.35140454769    0.27131479979    0.29751354456    
0.19246333838    0.330745399    0.06012513116    0.19609227777    0.3102992475    
0.33765742183    0.27473658323    0.30294573307    0.30340898037    0.30080643296    
0.19964146614    0.26174619794    0.21694687009    0.40151166916    0.074347198009    
0.098517857492    -0.00046945840586    0.26186665893    0.18371337652    0.13182672858    
0.23973622918    0.3508810997    0.27171844244    0.18746501207    0.1916718781    
0.24680477381    0.22432801127    0.02280225046    0.14738327265    0.12662006915    
0.23688864708    0.34640035033    0.17948055267    0.20733335614    0.097218066454    
0.11397588253    0.089595146477    0.052678707987    0.097736671567    0.029672401026    
0.026198217645    0.20059047639    0.20794272423    0.16411808133    0.13191781938    
0.15427291393    0.14277984202    0.19043906033    0.19724671543    0.12909922004    
0.22169439495    0.28757414222    
0.051785557382    0.0    0.050545338865    -0.032960736244    0.1    
0.13770129581    0.2    0.14862009545    -0.1    -0.14610857891    
-0.13378831934    -0.2    0.23931408161    0.24661425142    -0.047472416525    
0.13365839796    0.094432473183    0.098190204268    0.051448817209    0.19445884755    
-0.030692917766    0.0082965008914    0.0041336029887    -0.091015987118    0.052106558525    
-0.13154131445    -0.069859825877    -0.12137038261    0.050956383348    0.14697752401    
0.18341563642    0.24184870647    0.16142068769    0.1786558032    0.24088832304    
-0.044784933329    0.14708971977    -0.044275085471    -0.0060922489502    0.053796234592    
-0.027797897199    -0.19156443732    -0.1380405724    -0.1942986846    -0.23443041046    
-0.17109986392    -0.015183720738    0.11474210024    0.11208199456    0.06041772808    
0.109153606    0.011390452273    -0.053757724536    -0.15646461923    -0.18195512891    
-0.1468051919    -0.2425955875    -0.11177017706    -0.16576783359    -0.22906870407    
-0.00077733772422    -0.058958418667    -0.064327743078    -0.32776830717    -0.30412623286    
0.11385296285    0.054101004202    0.17537589605    0.21264617145    -0.11214611679    
0.080442197621    -0.1800249517    -0.13288478237    -0.10735099763    -0.26109488599    
-0.086583822966    -0.16713118553    -0.27360838652    0.0031874238048    -0.062851265073    
0.017654163763    -0.25719988346    0.090965643525    0.061294995248    0.052092600614    
-0.087195985019    -0.056695908308    0.0028856392018    -0.14166909456    -0.069311730564    
0.033728931099    -0.22353830934    0.11417367309    0.065062306821    -0.043345879763    
0.14994361997    0.16062226892    -0.11567402631    -0.045862741768    -0.004823774565    
0.066082030535    0.12395049632    0.20952318609    -0.17134040594    0.079299814999    
0.017035059631    0.10158551484    0.086114391685    0.20654162765    0.01258007437    
-0.044036142528    -0.03926416859    -0.0376653485    0.051262147725    -0.18233148754    
-0.13140705228    0.033360939473    -0.17146483064    -0.1750036031    0.11507255584    
-0.034520238638    -0.15367992222    -0.050664272159    -0.047469347715    0.052222408354    
0.16908699274    -0.13585554063    -0.08880661428    -0.031982798129    0.015550041571    
-0.072570905089    -0.12649032474    0.020682629198    -0.07657096535    -0.15935574472    
-0.05257004872    -0.090027466416    0.023828176782    0.12354470044    0.021488841623    
-0.25719451904    -0.15289129317    0.085725553334    -0.097184307873    -0.15494127572    
0.099927298725    0.016605032608    
178.238325322    239.026005278    128.322358309    204.635794517    201.362604025    
273.193045165    219.581108086    219.892806358    201.708883093    206.832890683    
211.234803925    192.918403619    146.978350889    251.124406256    188.925477017    
154.196531822    200.125837426    36.663294209    30.8431119359    58.2886303529    
59.0269578346    69.4146077182    66.0824719741    24.8567184983    32.4169607185    
64.5917063975    57.2584525503    56.9182922234    28.8139792808    54.6459220975    
51.7845112061    167.359159726    55.3736543273    86.3884328489    29.4162307864    
199.14215788    246.155952569    88.5367273902    58.2944676249    141.925901348    
33.5762783298    91.6014569014    76.9452188113    134.509217412    74.6643915338    
89.9927778835    55.5864310339    32.4983733291    47.8838579519    32.9189922669    
34.876176992    76.7069057792    60.4882340238    61.0852791545    49.027329955    
89.8375296458    150.780068812    92.1626125864    216.29586988    185.182309366    
158.889831755    68.8016614406    45.1862476811    152.287583605    152.878231737    
92.5129278032    40.0812413647    23.8230972465    49.3669480676    59.1052276863    
26.8318426822    45.3956307055    89.3150502509    214.051847056    277.539261263    
332.16469454    338.552641584    311.142864414    39.4307642816    26.6593390133    
30.8596869046    49.6994431544    58.290616979    69.3774911029    68.1559964974    
382.76085609    390.65859685    382.519571179    374.195648881    383.525865848    
378.34763425    365.402428511    367.273251848    374.019075286    348.567646132    
349.557099615    372.841575244    373.313974852    349.812792114    350.213080915    
359.898042052    316.552785001    346.334870102    240.346345539    209.667917926    
125.356394542    183.29189081    356.891533146    351.19117512    332.633108217    
310.224838504    173.727966282    112.472080277    103.708539789    57.8544836611    
99.3837843188    298.525272429    303.843370003    245.905672687    109.063815229    
67.4458500668    135.736960238    84.1844053384    89.4148019678    44.2377009282    
33.3866414911    35.8769802518    140.558009342    65.2193898757    124.701224107    
127.923120581    69.7154365407    71.4132477335    31.8626355236    24.8656272752    
66.4171849137    118.851192103    60.2815468906    354.883625633    345.554647564    
331.953741957    388.053291451    383.460825282    373.590545845    357.214991655    
390.031805963    371.397331287    373.859008368    350.149244891    385.973291321    
379.705778373    352.26050901    324.981927397    359.099192161    328.292074504    
242.874582469    310.957583028    364.803010649    268.341410363    299.386317314    
320.121233274    362.284378586    371.870266338    336.54744445    263.522004618    
241.93063224    245.375984463    335.850094439    261.819681343    218.688571001    
237.688781965    202.061120591    313.809021007    247.94508745    332.600596128    
386.348665966    369.29664999    379.182601514    374.639275605    341.891787474    
382.877726146    367.232787021    339.17437593    302.800997529    351.348527325    
321.12546556    373.646166165    335.591479035    335.584936797    388.043111095    
379.542994751    361.639912375    390.426514299    354.66130816    394.165426663    
317.821011603    263.26675598    363.563411872    231.505539163    310.995128018    
248.900510082    241.414108769    226.81712146    371.622787172    197.835353207    
152.669672195    311.056917103    115.419832    36.7485096078    62.6085735422    
92.6219500035    20.0412388192    101.553486876    11.2070639418    15.65487235    
58.0067746065    104.477036827    111.860567394    143.864228195    138.015293126    
130.190348168    366.508351638    359.262303791    131.689020662    137.31163015    
112.060718247    264.890473769    176.613980694    156.680570263    159.998242951    
159.597716713    181.502641243    156.006668832    178.549255346    126.77813648    
179.98072607    213.495506685    39.6626624394    37.4109132801    75.208609671    
50.1617120824    156.604800249    158.498699225    171.643078245    206.03044428    
175.44711261    140.819883985    242.384321727    275.351803524    302.16241793    
311.108792107    307.613427045    317.64249842    273.257552569    314.237015925    
338.462337577    127.185039342    128.515143116    148.949958353    172.56378199    
161.757540428    144.570675443    145.355530619    127.714246107    195.156589451    
156.961762638    279.383538566    309.750285281    220.779391747    356.450466604    
352.412254714    277.982468757    261.836629016    307.007274025    329.5276256    
342.535438125    321.348552502    149.671606576    185.377993542    175.169711538    
203.551175464    134.687090108    156.035573734    154.168294131    200.902287309    
163.081433726    152.110832822    167.342361592    160.922756534    184.166479642    
232.323682127    231.58941994    267.5649007    222.084278903    164.143792293    
180.79193341    149.126619422    178.409494808    195.447701342    161.350216422    
190.080612177    184.863000831    209.882864665    160.818979205    216.794704063    
203.380726731    152.431777685    194.316956689    165.509553329    199.930368272    
164.676898177    230.820861026    187.02556282    214.11672288    232.13716174    
223.060931704    199.312865766    203.785962492    153.281098864    179.202240505    
45.3510045508    341.593634095    332.484150361    335.813609689    344.357985153    
335.630792354    339.564823302    215.637524844    188.516778524    224.412638448    
223.890213048    202.454535752    320.288324811    322.863095114    305.990457293    
277.486557757    260.992022972    282.532638168    276.678064263    333.931458964    
327.630740634    316.389256568    330.457202281    325.029235799    332.1729137    
322.197602298    289.183949201    301.44373809    273.29756514    264.928052667    
257.31577671    249.698220528    303.409648472    281.39014081    249.15429873    
271.048134686    244.327895982    222.792151309    187.379180305    178.868195071    
292.02167355    237.700066906    233.771040293    251.899663116    224.132567067    
247.061915941    262.430930015    244.404487016    244.117461851    234.6036604    
265.991993386    233.280091029    290.945657132    255.74915035    240.151826023    
227.749826649    218.718020227    189.71816124    191.242533928    214.569650334    
289.179914761    256.642631985    250.815847371    303.186626029    279.687368855    
304.345721061    316.839168434    237.310870976    246.865538696    234.66695058    
226.669697722    215.035410269    238.589435632    302.357818874    288.650847419    
284.233902094    277.935208735    293.663353905    331.413469902    288.066371698    
311.287778488    293.948565981    304.981767527    298.789644669    317.559067325    
277.671810193    300.641558527    314.339298495    308.274556131    320.268626157    
305.076546575    312.122218193    318.157018004    230.356838671    248.883400323    
281.067786547    273.035269697    266.550508712    279.224540704    264.404708916    
224.343898192    248.465027047    266.896886844    249.735417323    201.293798987    
239.548121498    217.888917157    216.658644932    246.295598156    224.964157388    
272.007990596    281.316699557    263.35173051    242.914419442    264.661017747    
277.57839353    267.786332609    257.382268797    273.533304238    305.7581545    
261.136031324    267.808390989    279.709859253    272.787904511    283.291343308    
293.636126417    281.80974859    238.703956581    233.714570982    264.727758079    
267.21244948    274.145194147    291.793857658    291.023066811    260.843387929    
275.904073611    245.533036776    284.658369252    254.16842466    374.685957205    
366.31778192    213.228435539    209.239515511    201.704809751    260.162012187    
271.183239444    
0.483248506519    0.461741738148    0.477836456927    0.441345308577    0.453104383367    
0.456528724517    0.478470411352    0.449686054177    0.458067820497    0.477062127531    
0.455827474555    0.44394363112    0.477354561733    0.424806312615    0.478287032873    
0.45672604821    0.457660554502    0.480037629807    0.479983305135    0.460559061976    
0.454003204216    0.454984475463    0.460119313191    0.479696202966    0.479752536294    
0.460032398567    0.453218325471    0.460279787543    0.479676544637    0.453414864004    
0.453721774688    0.438620631461    0.480026333049    0.460504774468    0.480408156849    
0.434706615021    0.402971203389    0.460201961846    0.480019206195    0.450859856275    
0.479715441656    0.440656272223    0.441492439125    0.403545770706    0.435045431593    
0.440639256724    0.456225540352    0.477883656141    0.460478897916    0.477391938788    
0.477234919637    0.431467123059    0.45477296159    0.451469998294    0.479967639563    
0.433606568597    0.40353000299    0.46036272709    0.400961458321    0.438379402941    
0.445257961386    0.479346512611    0.479706527523    0.43182470996    0.403040681123    
0.436364116011    0.460745053736    0.47700553543    0.452400626426    0.452700176253    
0.479441357615    0.478983125019    0.458310717578    0.437583187818    0.434858847411    
0.389655284774    0.369606418175    0.389722181608    0.459367254975    0.474121151365    
0.474065557963    0.449840191779    0.445098940349    0.42775684907    0.430661825134    
0.109084597583    0.101262940921    0.1371637511    0.177704476025    0.200848845359    
0.189822595058    0.242526294949    0.212684325908    0.260797384378    0.281113183624    
0.289926673626    0.276948044689    0.300345231756    0.334574701523    0.301280003816    
0.24465308089    0.371183578962    0.379734348166    0.416408825648    0.416341925231    
0.439046391068    0.396778306084    0.366085992106    0.390983629117    0.343740296444    
0.365138324308    0.3972072228    0.43923649645    0.43209812097    0.479565004577    
0.479565119484    0.436667513919    0.375186173427    0.39877631621    0.391116714761    
0.433508537931    0.392205766962    0.433089875604    0.434075915197    0.45879425812    
0.473489480573    0.473299679754    0.380052374645    0.437491321258    0.39434271065    
0.372310133671    0.429754411513    0.426423356499    0.474704721495    0.474658702078    
0.428954614152    0.380313618637    0.436930149363    0.206581268204    0.250514696933    
0.209366588752    0.158882456663    0.180822089531    0.17357122749    0.207074959892    
0.113910893849    0.14640862302    0.15871939599    0.143128317114    0.0910453437783    
0.085347841823    0.253557444188    0.252255732317    0.224373261319    0.345357120358    
0.370569766375    0.329458238261    0.29453472747    0.33202735668    0.338603272285    
0.252873485281    0.354534185696    0.308253076462    0.261823877065    0.358976154918    
0.333346488763    0.353847310273    0.380780404161    0.298045237551    0.356444988384    
0.33231014073    0.385193567097    0.373428814714    0.394996896266    0.198651145454    
0.174410283724    0.144108983758    0.145342848743    0.106739372497    0.162269796091    
0.204651673729    0.158430634414    0.271971404915    0.271854924068    0.23191039437    
0.240734194338    0.191675070958    0.16846929513    0.223349555984    0.144646654476    
0.12661327938    0.133316668201    0.166798165744    0.155446792659    0.172865843133    
0.339334049181    0.34353612062    0.390862673314    0.374664683279    0.342891241779    
0.36597422324    0.353600065327    0.362951160238    0.363325916476    0.392614528888    
0.467862798436    0.431923847454    0.384643048743    0.461474407364    0.439267215889    
0.402953755202    0.483335095673    0.400291821599    0.484555592773    0.484040919467    
0.438375643489    0.400506337151    0.387613787186    0.351699443132    0.349335872019    
0.36881053452    0.0875195432914    0.0936958052638    0.363020822258    0.375538321775    
0.388317124011    0.285792042924    0.365787436353    0.390200694838    0.364387299172    
0.384918500153    0.37434176115    0.371518844332    0.345967047044    0.391083357827    
0.330121618121    0.314920187312    0.47068859475    0.470575867723    0.431554757174    
0.45239212766    0.354211007087    0.338107590245    0.328573411544    0.301946615071    
0.342104745652    0.352184553054    0.31944768238    0.261405174742    0.234745250918    
0.280774182317    0.236748426345    0.210243125376    0.316364436995    0.24324493308    
0.185548570064    0.373457272903    0.372971200389    0.340928979011    0.304270980239    
0.325902738954    0.339609752732    0.36590797887    0.371703390375    0.275945383378    
0.324548521921    0.272473319785    0.208447834641    0.351051144719    0.081137792796    
0.108034256085    0.252942639774    0.265772864253    0.214889899288    0.172861470848    
0.130844780506    0.207788669437    0.333489938224    0.298351375964    0.309073128311    
0.270433123493    0.356776813627    0.338301417357    0.32532675931    0.273276902097    
0.32947252615    0.383390213097    0.348881596023    0.344791548126    0.341672981265    
0.304243247976    0.293089038308    0.267855460289    0.323415978844    0.374793828163    
0.36082096774    0.391345313276    0.334795745481    0.331736306043    0.362201560151    
0.357902407161    0.324722726909    0.299061507187    0.332521015431    0.268405519204    
0.289191777162    0.341093585156    0.301954844887    0.337878595928    0.297199440349    
0.352324075681    0.267631177178    0.31623221285    0.268477121317    0.240469677028    
0.246119198507    0.280717136162    0.266143357324    0.393108451866    0.379245700927    
0.474524749714    0.116443488891    0.142400737536    0.0660905426912    0.0572257829337    
0.10848567592    0.0610375533593    0.264042588472    0.300192724216    0.262450219686    
0.245488974132    0.297028281122    0.11547898519    0.139337159007    0.163841529344    
0.232700603457    0.253934778938    0.210474430519    0.233670674159    0.13282404397    
0.123972164783    0.150448689867    0.0954894735227    0.174375525761    0.175805343491    
0.197700916381    0.262054902123    0.214282285925    0.220487269219    0.251189290042    
0.262131762238    0.270637480342    0.185329330613    0.285504816314    0.288676751034    
0.288465469276    0.314652844458    0.307739236863    0.343631080807    0.350731906755    
0.202502023366    0.25925709945    0.247762945712    0.23218867864    0.281671448124    
0.248777203977    0.238293251349    0.222449582875    0.241848855976    0.264498058428    
0.21315645392    0.257942581946    0.166549104114    0.236578076554    0.232337755466    
0.250229019195    0.249184744294    0.289597489679    0.287167986649    0.252740287707    
0.192476942331    0.212260561776    0.230154959609    0.146658466423    0.205732581798    
0.141772156552    0.125048802954    0.236884467841    0.216756936171    0.228564845397    
0.233606528446    0.247063725288    0.217380783126    0.120601068925    0.148187536541    
0.136951936033    0.172077845528    0.163729974174    0.0698718540505    0.161926877909    
0.116363501833    0.103439464857    0.0759811483478    0.0977793038306    0.0494919289121    
0.144671663856    0.0925570299319    0.0664748807103    0.0940501637755    0.0640100076172    
0.0780729517234    0.0931144493061    0.0803985052425    0.228976270935    0.207424161271    
0.140204078886    0.154760448103    0.178837346651    0.137650864263    0.176794933419    
0.23816671355    0.200169804862    0.163735177978    0.203993191341    0.269930239497    
0.218742629957    0.249853114331    0.252143838263    0.211290711596    0.240583995427    
0.159679765533    0.139689321625    0.175199261567    0.213269883826    0.179469400641    
0.157255300753    0.173717214873    0.185227007843    0.163071856599    0.0914165518106    
0.183079031386    0.178988665275    0.155372164467    0.164898048318    0.143349580476    
0.135293694615    0.168104506087    0.222589470001    0.23052391896    0.190808624834    
0.188400187384    0.173647520862    0.1438590739    0.15269580137    0.209348692649    
0.205023132742    0.223545118649    0.162825597461    0.195039814607    0.269569545753    
0.293942167897    0.313313873759    0.299538035899    0.300556804477    0.231219226798    
0.229939236609    
1     2     3     5     
3     2     1     4     
4     3     2     15     
4     1     3     29     
1     5     3     83     
6     7     8     13     
8     7     6     5     
6     8     5     83     
9     10     11     70     
11     10     9     12     
12     11     10     44     
8     13     14     69     
14     13     8     7     
6     13     8     69     
4     15     2     9     
3     15     4     29     
9     4     15     70     
16     17     18     20     
18     17     16     19     
19     18     17     29     
19     17     16     71     
16     17     20     109     
18     20     17     37     
21     22     23     19     
23     22     21     24     
24     23     22     36     
24     22     21     90     
19     22     23     29     
21     22     19     25     
25     22     19     71     
21     22     25     47     
4     29     15     36     
3     15     29     23     
15     29     23     36     
3     23     29     18     
3     29     1     83     
4     1     29     79     
18     29     8     37     
8     29     18     3     
3     8     29     83     
23     29     18     19     
17     29     18     37     
19     29     17     22     
17     22     29     117     
17     19     22     71     
23     29     22     36     
33     32     31     34     
31     32     33     30     
33     31     30     84     
33     35     34     16     
34     35     33     32     
33     34     31     71     
16     35     34     109     
16     34     33     71     
24     23     36     15     
24     36     22     90     
22     36     29     117     
24     15     36     70     
4     29     36     79     
4     36     15     70     
8     14     37     69     
37     14     8     20     
8     37     20     18     
8     37     29     83     
29     37     17     117     
17     37     20     109     
41     40     39     84     
39     40     41     38     
41     39     38     74     
26     43     24     90     
24     43     26     42     
42     24     43     10     
10     24     43     70     
10     44     11     70     
12     11     44     45     
11     44     45     46     
46     44     45     75     
11     44     46     70     
41     47     25     84     
25     47     41     27     
27     25     47     21     
27     47     41     74     
21     47     27     90     
22     47     21     90     
25     47     22     71     
54     55     56     76     
56     55     54     57     
57     55     54     82     
58     59     54     76     
54     59     58     60     
60     54     59     82     
60     59     58     77     
61     62     58     76     
58     62     61     63     
63     58     62     77     
63     62     61     79     
49     66     67     61     
67     66     49     68     
68     67     66     83     
61     66     67     79     
49     66     61     81     
68     69     6     83     
6     69     68     13     
6     69     8     83     
8     69     37     83     
44     70     10     43     
44     70     43     89     
11     70     46     63     
63     11     70     4     
63     70     46     77     
46     70     44     77     
43     70     36     89     
36     70     43     24     
24     43     36     90     
10     24     70     15     
10     15     70     9     
4     11     70     9     
4     70     63     79     
4     36     70     79     
22     71     47     88     
25     47     71     84     
34     71     17     101     
17     71     34     16     
16     34     17     109     
25     71     33     84     
33     71     25     16     
16     71     25     19     
31     71     34     103     
33     71     31     84     
17     71     22     101     
47     74     28     86     
28     74     47     27     
27     47     28     90     
41     73     74     38     
74     73     41     27     
41     74     47     39     
39     74     47     100     
41     39     47     84     
58     76     62     59     
59     62     58     77     
59     76     62     116     
53     76     58     54     
58     76     53     61     
61     76     53     81     
62     76     61     81     
53     76     54     56     
54     76     59     55     
55     59     54     82     
55     76     59     115     
53     76     56     87     
56     76     55     87     
59     77     60     78     
78     59     77     92     
78     60     59     82     
44     46     77     75     
44     77     70     89     
70     77     63     62     
46     63     77     58     
70     77     62     89     
63     70     62     79     
59     62     77     116     
63     79     67     4     
67     79     63     61     
61     79     62     81     
62     79     70     36     
36     62     79     80     
36     70     62     89     
4     79     67     1     
62     79     80     91     
36     80     79     117     
36     62     80     89     
29     36     79     117     
67     1     79     83     
29     79     1     83     
76     81     62     99     
53     61     81     50     
53     81     76     52     
52     53     81     50     
52     76     53     87     
52     81     76     99     
61     81     50     49     
50     81     52     51     
79     81     61     66     
62     81     79     91     
66     81     49     51     
51     66     81     91     
51     81     49     50     
51     81     52     114     
78     82     59     92     
65     82     57     64     
57     82     65     55     
55     82     65     115     
54     57     82     60     
55     59     82     115     
57     82     60     64     
67     83     79     66     
66     83     79     117     
67     1     83     6     
79     83     29     117     
66     83     69     68     
69     83     66     37     
37     66     69     97     
37     83     66     117     
68     83     6     67     
29     83     37     117     
3     8     83     5     
5     83     1     6     
47     71     84     100     
30     84     48     40     
48     84     30     31     
31     48     84     93     
30     33     84     25     