Title = " tecplot file for 2D Cavity problem " 
variables = "x", "y", "z", "velX", "cellCentroidY" 
Zone T = "nmesh0" N = 148 E = 466 DATAPACKING = BLOCK, VARLOCATION = ([4-5]=CELLCENTERED), ZONETYPE=FETETRAHEDRON
-0.5    -0.5    -0.41134600764    -0.5    -0.5    
-0.41079876965    -0.5    -0.5    -0.41775355887    -0.5    
-0.5    -0.5    -0.23404010439    -0.23444991455    -0.2    
-0.3    -0.41441025097    -0.5    -0.5    -0.5    
-0.41676526452    -0.5    -0.5    -0.41242957882    -0.33765962447    
-0.3384099287    -0.4    -0.42990811394    -0.5    -0.5    
-0.43026673074    -0.5    -0.41858366132    -0.5    -0.5    
-0.41247305274    -0.5    -0.41925102472    -0.5    -0.40555220842    
-0.5    -0.41940274835    -0.5    -0.40948399901    -0.5    
-0.5    -0.41883659363    -0.4138704772    -0.41744318604    -0.5    
-0.25946559035    -0.22120118141    -0.17009782121    -0.15095010298    -0.11170014509    
-0.10666322708    -0.22483046569    -0.27079838514    -0.32809906657    -0.13361635566    
-0.1    -0.077098563313    -0.033156112103    -0.13381888202    -0.06491680317    
-0.20199267566    -0.32038648048    -0.23019745408    -0.25131191065    -0.29952433705    
-0.32074041795    -0.32652065401    -0.31005772948    -0.3306343031    -0.26112896212    
-0.22914127163    -0.22047735751    -0.17116185095    -0.11382297204    -0.11663387716    
-0.0017305336023    -0.054190154165    -0.10988757014    -0.161649574    -0.0044047106057    
0.053433206699    0.11013898558    -0.18401253223    -0.4112996459    -0.41798526049    
-0.40122249722    -0.40326237679    -0.41463297606    -0.40399912    -0.34252545238    
-0.34801006317    -0.13263377547    -0.14493252337    -0.28857129812    -0.30652436614    
-0.19483135641    0.012834740803    0.056835947699    -0.39494851232    -0.40124544501    
-0.29612326622    -0.33262723684    -0.33178433776    -0.35651803017    -0.32330669084    
-0.35020586848    -0.22749258578    -0.2042337358    -0.3244908452    -0.17448301613    
-0.063643850386    -0.32705008984    -0.27540779114    -0.17208123207    -0.27115908265    
-0.32942968607    -0.33732712269    -0.15845650434    -0.22109769285    -0.24838085473    
-0.0037518604659    -0.051470957696    -0.049388173968    -0.091621786356    -0.18693882227    
-0.29569122195    -0.32050746679    -0.3104069531    -0.35463994741    -0.1431285888    
-0.23580853641    -0.21770165861    -0.15286615491    -0.12885555625    -0.087462089956    
0.011335023679    -0.23767915368    -0.11608843505    -0.27574142814    -0.065843753517    
-0.27039843798    -0.14554896951    -0.19199290872    
-0.41206894535    -0.5    -0.5    -0.5    -0.1    
-0.14458893486    -0.13364411811    -0.2    -0.34419926426    -0.4    
-0.33776895241    -0.3    -0.5    -0.41392312726    -0.5    
-0.5    -0.24606052622    -0.23410098068    -0.41692207036    -0.5    
-0.5    -0.5    -0.41282405823    -0.5    -0.5    
-0.40321664073    -0.5    -0.5    -0.42995180083    -0.5    
-0.42996041333    -0.32513141571    -0.27891886234    -0.23962192862    -0.25975457077    
-0.22138498724    -0.17029940831    -0.39488092065    -0.22560344983    -0.27129718661    
-0.32853354361    -0.38609322906    -0.23241246874    -0.20348463953    -0.15243799288    
-0.11203858655    -0.38401687145    -0.5    -0.38211107254    -0.32144021613    
-0.5    -0.41294869781    -0.5    -0.5    -0.5    
-0.41330686212    -0.5    -0.40558195114    -0.5    -0.5    
-0.5    -0.41791293025    -0.41681834914    -0.41349755614    -0.32733943493    
-0.41409754753    -0.5    -0.5    -0.14952342592    -0.14880338311    
-0.099881356448    -0.19700538539    -0.34400883317    -0.29398410977    -0.33482571808    
-0.23959213476    -0.30013510585    -0.32598744359    -0.23489384581    -0.29607358575    
-0.23831660019    -0.13880529044    -0.17221266031    -0.14293884701    -0.30195197463    
-0.34019988404    -0.24149730754    -0.44252699614    -0.30110177398    -0.15763661265    
-0.1330280453    -0.27678754926    -0.29135346413    -0.14675989747    -0.42486304045    
-0.42495080829    -0.40212181211    -0.40164154768    -0.42936271429    -0.24643020332    
-0.21039864421    -0.20665049553    -0.1449067291    -0.33117711544    -0.33320266008    
-0.38076633215    -0.21379083395    -0.33187541366    -0.4298556149    -0.5    
-0.4240283668    -0.42828205228    -0.29431012273    -0.2424339056    -0.29545712471    
-0.2367926389    -0.23985241354    -0.3373837471    -0.16274952888    -0.19624422491    
-0.13970586658    -0.11473589391    -0.32930660248    -0.2212638855    -0.33189153671    
-0.31734630466    -0.28335988522    -0.1934465766    -0.32101249695    -0.31964325905    
-0.3089671433    -0.14850778878    -0.28612479568    -0.3407984674    -0.23181079328    
-0.22856816649    -0.34826081991    -0.15103310347    -0.24358178675    -0.15922167897    
-0.17641739547    -0.18704773486    -0.27674484253    -0.28341108561    -0.1916076839    
-0.2478607744    -0.23729857802    -0.23935899138    
-0.14569373376    -0.2    -0.14577749358    -0.1    -0.5    
-0.5    -0.41488461284    -0.5    -0.5    -0.5    
-0.40274166961    -0.5    -0.41501883626    -0.5    -0.5    
-0.5    -0.5    -0.41449869805    -0.34345106589    -0.4    
-0.34358580018    -0.3    -0.24482508537    -0.24496519701    -0.40299384281    
-0.5    -0.5    -0.42973408663    -0.42966383067    -0.5    
-0.5    -0.090026497793    0.009828847833    -0.028776735345    -0.33476137068    
-0.35920488834    -0.32835456058    -0.39195218682    -0.23927985731    -0.28870111704    
-0.292062164    -0.2934460938    -0.12863014326    -0.17707693577    -0.16332082087    
-0.24273030832    -0.094315826893    -0.047249239466    -0.19368140399    -0.19052541416    
-0.33549586735    -0.36007356644    -0.3297060268    -0.16556427138    -0.24549875396    
-0.18845205009    -0.24046779837    -0.28948915005    -0.29250384465    -0.4156850925    
-0.5    -0.38918018341    -0.5    -0.5    -0.5    
-0.17850753665    -0.19094273231    -0.12949052334    -0.5    -0.42055824399    
-0.5    -0.5    -0.41058635712    -0.5    -0.5    
-0.5    -0.41797298193    -0.5    -0.5    -0.412114501    
-0.5    -0.5    -0.41219487786    -0.5    -0.40279877186    
-0.5    -0.5    -0.44313097    -0.41377413273    -0.41585072875    
-0.29171180725    -0.097461871803    -0.2003569752    -0.092517517507    -0.34691417217    
-0.23991838098    -0.29512798786    -0.092454954982    -0.4296849668    -0.41787490249    
-0.4182626009    -0.40940052271    -0.5    -0.042594596744    -0.14280538261    
-0.10613802075    -0.031363163143    -0.31480705738    -0.14953349531    -0.090223203154    
-0.04481126368    -0.078907623887    -0.13151495159    -0.22690086067    -0.31181383133    
-0.33055222034    -0.3274050951    -0.20425222814    -0.31885018945    -0.13141174614    
-0.21781146526    -0.34904295206    -0.21634635329    -0.23611994088    -0.34133782983    
-0.24664570391    -0.16438780725    -0.22939564288    -0.33070063591    -0.026390599087    
-0.03352824226    -0.082913041115    -0.12783302367    -0.23380757868    -0.35610294342    
-0.32658138871    -0.26820102334    -0.15296903253    -0.24600040913    -0.29956531525    
-0.31702208519    -0.038783896714    -0.089256197214    -0.283018291    -0.13266196847    
-0.073740914464    -0.16091105342    -0.076229885221    
399.586951301    399.836766968    399.550866518    399.521054667    399.735872219    
399.790568469    399.905331785    399.7354661    399.773487918    399.903250814    
399.775051713    399.58126515    399.825356253    399.437254179    399.817070743    
399.918269001    399.720037748    399.615876575    399.867369423    399.674395296    
399.832654648    399.93469619    399.88763974    399.717837594    399.923527914    
399.893854259    399.979535542    399.960200927    399.801154284    399.983410822    
399.978726238    399.887229536    399.882397774    398.98333985    399.064243526    
398.670464664    398.236992103    399.524596324    399.851688596    399.895626606    
399.885525398    399.861432475    399.563631513    399.757329749    399.515919761    
399.521316912    399.747517267    399.38225726    399.848387608    399.510861486    
399.010812726    398.655370626    397.195638775    396.808078359    398.36854376    
398.411243586    398.719034167    399.113599467    399.638888098    399.738814377    
399.106894744    399.198464428    399.814438362    399.194804864    399.323578877    
399.673040755    399.359164444    397.624816846    398.19003563    397.784347995    
396.321017858    399.137674412    399.544071006    399.215056073    398.790469149    
398.879146633    398.926893442    399.239462236    399.593464806    399.748350479    
399.61710108    398.940595602    399.460225126    398.806819519    398.441504548    
398.709726632    399.349776524    399.203492013    399.20457879    398.173381072    
399.068359008    399.263929134    397.792580367    398.549265891    398.953786394    
398.879522665    399.145431749    399.543300435    399.40219066    398.602041132    
398.398134876    397.760785423    398.860386931    397.947123327    399.153096414    
396.978707577    396.74477238    398.378676966    399.091826346    398.185151761    
397.590560445    398.030443991    398.730985619    398.754595521    399.513298788    
399.568439965    399.180727249    399.120099184    399.252407692    399.31026685    
398.788031992    398.508886921    399.16185076    399.334293205    398.215839672    
398.9793775    398.943720959    397.822428545    399.131155346    399.21812565    
398.500643541    398.707478167    397.640134828    398.425573182    396.559000382    
397.519312358    397.827362699    397.750011249    395.240484678    396.887309368    
395.994566658    399.10903642    399.002173381    398.479244813    397.027811492    
395.661842922    397.618541103    398.526537253    396.670495055    397.563481379    
398.226414009    399.607537567    397.244972895    395.843133586    398.362742671    
398.795106973    399.897780385    399.062487251    399.684859068    399.907255562    
399.07689718    399.886331956    399.892502937    399.493405911    399.418461278    
398.195456716    398.846852751    399.514674719    399.750768313    398.571605952    
398.214681961    398.959448838    398.90758823    399.399654383    399.571773865    
399.762730514    396.977252948    398.505622091    397.837673718    398.091866256    
398.284598511    399.252088071    399.634412405    396.765769219    398.783302941    
399.307394306    399.634120195    398.494976024    398.115268733    394.659307213    
395.829315683    398.053485872    393.578065495    396.592986245    395.078491497    
398.15944815    398.55705827    398.182495834    397.685398538    397.145085237    
395.870591002    394.43901916    396.778531031    397.127518004    397.613477894    
397.509735045    398.801178159    396.073383786    393.16116202    394.637262472    
399.14646148    398.139886289    394.358048649    392.030742204    390.472014877    
397.358222488    398.84954569    399.055128899    398.365429785    399.612175596    
399.348616678    399.70635148    398.655588901    399.266675775    399.309635839    
397.856369085    396.514976049    397.388937979    399.391908867    397.88417811    
399.666003412    397.506586056    399.622672657    397.962967568    398.839258633    
397.84390546    399.189995647    397.921087401    396.298089225    398.888111354    
394.861871029    396.593933796    393.654544908    396.706715923    398.190915655    
398.800514983    397.631333609    398.02202592    399.681758199    399.880203899    
398.208251547    399.640331057    399.874430757    398.719419797    398.240464935    
397.29881783    399.217915527    396.710815534    399.345081758    397.215889961    
398.199953582    399.307673693    397.129828343    396.536744195    397.705678762    
395.524020368    395.248354829    397.299200649    396.117635728    393.746564295    
398.892161448    394.926316068    398.867907865    394.592114377    396.964635101    
397.417554287    398.489536517    395.145642217    395.11351025    392.889025753    
397.179036354    397.807361397    397.130075111    392.531047203    394.557556353    
395.909779111    396.715522511    397.562330206    399.036937502    394.341223176    
398.835283934    397.819978485    396.825784984    391.523666489    390.177536109    
396.97266208    396.95478116    397.236373142    397.38283612    397.418923137    
396.626798301    397.016770824    396.861134686    395.982765799    397.344581774    
399.718561502    399.545114875    398.970906337    398.682499596    399.622660891    
399.193546895    398.095615427    398.02231669    397.388484154    397.985265307    
396.025455361    396.639519128    396.704896695    397.371431535    397.702989976    
393.821513705    393.46351666    392.173565652    392.413665516    393.66701831    
392.502705068    392.41411293    394.95691323    391.113939861    393.095883338    
394.438399844    395.733056948    395.597460266    392.501363711    389.253777086    
391.780129001    393.097840036    396.246143039    396.370719623    394.074078265    
394.692771334    395.062130224    394.030142733    394.297981602    393.634025125    
390.844391609    392.336461192    392.701699105    395.752859987    396.385686344    
395.397541009    396.142511011    387.392613344    388.984845495    394.903350313    
393.747117135    390.315178384    391.45246728    389.706634992    387.729252269    
390.109943317    394.345293418    395.330202945    395.148488221    395.274988598    
395.061968211    395.682688399    395.982628344    391.233819234    393.198413525    
392.550392656    393.785982991    395.342707819    390.664700898    393.067680062    
395.368133007    392.107526927    389.538245231    391.249939005    388.667600509    
391.19176459    389.818984975    389.526821099    387.828804357    390.285831906    
387.376103608    392.949646852    391.402777393    386.830909174    385.02833289    
389.247191425    393.161166919    394.299206475    394.666036201    394.199674526    
393.600615006    388.42745591    386.068351508    386.973193663    394.907960451    
391.261237453    395.470782921    395.08025579    393.546203328    394.45668221    
386.887760454    390.21170452    390.825157351    387.77300011    390.805969714    
389.964961227    393.675611025    393.540335305    388.314427685    389.884668873    
393.382120796    394.052807169    393.77852555    396.197826972    395.069703088    
391.295817461    391.919988168    389.951692275    392.051134685    394.563068461    
387.182902196    389.493760891    381.027599387    382.26045847    383.025629916    
386.939036268    386.193353285    391.278823475    389.581902532    387.253494511    
385.003328167    386.483927396    383.662842275    388.951751873    386.809155794    
380.346167515    380.865550683    383.758623452    386.997334214    386.562066644    
385.922273675    390.380065181    391.707696508    389.021744965    381.796240123    
382.536465114    381.735297797    386.694720449    384.646564289    379.879304    
382.512482066    381.503721393    386.96693784    378.840011252    387.37866035    
378.293651163    383.375879951    382.280469937    380.455080633    384.106912074    
377.990250311    
-0.448745136201    -0.477591222221    -0.448930419433    -0.159616249578    -0.145236728982    
-0.36933156219    -0.345929698119    -0.320770481792    -0.464518601241    -0.478021434854    
-0.461638107352    -0.270311353961    -0.245646712467    -0.208928899365    -0.453146651333    
-0.478926616663    -0.450283204528    -0.448423722899    -0.477792779884    -0.450049155653    
-0.458916010623    -0.475054939002    -0.47341393086    -0.447410801212    -0.456882935951    
-0.454783668186    -0.482441624446    -0.464986021638    -0.431537307782    -0.482451978057    
-0.441583258597    -0.413418210181    -0.438579857904    -0.254749580276    -0.220556985612    
-0.195567527332    -0.230410050442    -0.38333760211    -0.394392826092    -0.43504048017    
-0.388974726679    -0.471324686665    -0.425847873944    -0.471875035579    -0.430952975895    
-0.455174357379    -0.393010666887    -0.371414042197    -0.391272625544    -0.345219116893    
-0.270679170364    -0.231764878173    -0.200378601177    -0.197496011517    -0.264861673115    
-0.279326223701    -0.290614380604    -0.338634181684    -0.366647893829    -0.386070642854    
-0.354184356137    -0.376902778586    -0.429245379934    -0.427402100145    -0.45238231067    
-0.469361612869    -0.421985719886    -0.238450668605    -0.204007443741    -0.174389396705    
-0.16852943961    -0.453051701361    -0.468794336796    -0.421369663012    -0.379389379334    
-0.424172670295    -0.424062361855    -0.453103715685    -0.468219734631    -0.4270972349    
-0.381912187637    -0.362015189567    -0.360985468657    -0.331410596791    -0.345804170055    
-0.454834543863    -0.477426487817    -0.464059150447    -0.459637671332    -0.45017680211    
-0.475112763334    -0.475292907585    -0.430818227501    -0.436732491145    -0.456688702656    
-0.458574118897    -0.393923608672    -0.436922410474    -0.444070341682    -0.364668101807    
-0.365930329906    -0.45631371405    -0.477809954704    -0.452971832355    -0.47819595269    
-0.432749266502    -0.4325440215    -0.457845700539    -0.478227140204    -0.459140055905    
-0.452954761381    -0.15093229521    -0.148944419682    -0.184663568278    -0.345129438733    
-0.346498053298    -0.321048089105    -0.347105754313    -0.392695285097    -0.377128844411    
-0.304675755508    -0.279835824312    -0.299575877038    -0.343737345508    -0.269400856584    
-0.369120353934    -0.369116610869    -0.266371774837    -0.296078201021    -0.340749820441    
-0.273726607214    -0.367426001228    -0.337528385432    -0.389403433645    -0.235376677965    
-0.290272437015    -0.172235412291    -0.196310185461    -0.188644312095    -0.190389993872    
-0.335731098906    -0.346101909835    -0.302253581956    -0.2806170974    -0.247854111495    
-0.261002656263    -0.389587068174    -0.443618612788    -0.365031763211    -0.362559793386    
-0.34404661448    -0.39732108283    -0.282740630873    -0.327930123928    -0.393556182941    
-0.392769041849    -0.442508460542    -0.463304277299    -0.486127402059    -0.486716710976    
-0.445440216151    -0.46492227778    -0.486139948065    -0.463349412919    -0.446397204309    
-0.343204813036    -0.27171659719    -0.296306879933    -0.297402000563    -0.296458858965    
-0.252374732992    -0.24980925141    -0.216055944228    -0.306971136766    -0.283692099338    
-0.2927562332    -0.259887514064    -0.321249031115    -0.322651507365    -0.320143454218    
-0.352032579479    -0.175170127239    -0.181774085598    -0.169298483656    -0.149940929636    
-0.187545879371    -0.187921564634    -0.211313956955    -0.219699630503    -0.214195835789    
-0.207309225648    -0.160493194305    -0.210818652338    -0.246781905957    -0.156548996024    
-0.268482023785    -0.288771433254    -0.314362815463    -0.279816580141    -0.280523674879    
-0.222526865108    -0.232995023665    -0.302742472176    -0.323027971637    -0.350415450902    
-0.305222282362    -0.26652044179    -0.251244586255    -0.264414878257    -0.214828222095    
-0.290983793055    -0.332149082143    -0.251323662684    -0.228219891484    -0.196647540007    
-0.393824928213    -0.442117894201    -0.435164484692    -0.38362693908    -0.481029190947    
-0.463574753943    -0.481628734407    -0.43888424847    -0.462026778181    -0.436896784089    
-0.436515786784    -0.395962355496    -0.429463351994    -0.481450303104    -0.440788717809    
-0.481639377719    -0.396478376905    -0.480926089551    -0.391757288515    -0.435478481202    
-0.383741233581    -0.464363179671    -0.433396679332    -0.392606920472    -0.474673241666    
-0.389860733977    -0.38880355204    -0.388853675412    -0.436012210355    -0.402464925356    
-0.397756860134    -0.379987381034    -0.371108263409    -0.482248561338    -0.483106772094    
-0.373157878708    -0.394980103624    -0.437150581014    -0.35248055357    -0.306046309613    
-0.348110724729    -0.277182363389    -0.304928661763    -0.244408341634    -0.248946255339    
-0.208227527317    -0.245705308203    -0.253009829107    -0.193898715244    -0.187188787841    
-0.212467662473    -0.160986837239    -0.283614507281    -0.229265696477    -0.228073400251    
-0.253026374916    -0.260762356647    -0.206830859676    -0.208195794425    -0.210759918742    
-0.187163563208    -0.185629360983    -0.246115720525    -0.22943634894    -0.260067626549    
-0.181219598154    -0.207626238151    -0.317792283114    -0.272342491718    -0.33325808753    
-0.357363469335    -0.381911963544    -0.341757954941    -0.348188354832    -0.295512311115    
-0.363385334534    -0.38381840487    -0.336963792667    -0.275571320585    -0.199087190379    
-0.286619436289    -0.332444052272    -0.303293708798    -0.359307956619    -0.371500735338    
-0.376254052553    -0.374000815611    -0.371723281849    -0.370171373438    -0.404442406973    
-0.483133435608    -0.482439162672    -0.463271696012    -0.435715023771    -0.482715144204    
-0.482520466179    -0.452708827603    -0.434058939624    -0.432540848226    -0.452943361179    
-0.390938987616    -0.43029703748    -0.401864686625    -0.394590843449    -0.434601792078    
-0.377055501077    -0.382040326713    -0.359330670734    -0.359459003549    -0.356822805023    
-0.354112510106    -0.256324266194    -0.285720910057    -0.180069360684    -0.218856859024    
-0.281903380083    -0.335274676941    -0.334419628378    -0.228044190653    -0.197395675232    
-0.234354891123    -0.288600670541    -0.290516728291    -0.3107411549    -0.274004947372    
-0.271626124474    -0.295300061678    -0.214422176483    -0.181719726579    -0.177685555851    
-0.188446200278    -0.325047029191    -0.343851506243    -0.372763499459    -0.383670369689    
-0.377730999282    -0.377547871655    -0.195421796456    -0.231283142087    -0.375432708859    
-0.358235866936    -0.29455513602    -0.305722363286    -0.283069386129    -0.270545713411    
-0.32758209312    -0.287987979272    -0.348285256079    -0.29681153459    -0.275377533757    
-0.263059035251    -0.339417452621    -0.374984447649    -0.297759863387    -0.337633866496    
-0.341459479    -0.344648823785    -0.358768358214    -0.303718985308    -0.286315895112    
-0.366169142918    -0.271703530051    -0.324368555835    -0.326095156783    -0.293907623833    
-0.317705047417    -0.225894999418    -0.232258159558    -0.236452686555    -0.271398264435    
-0.249542464459    -0.300424696948    -0.271152965104    -0.256879690795    -0.236118450795    
-0.285641364177    -0.327168080465    -0.336575944007    -0.312557334274    -0.307425658952    
-0.289731265868    -0.209567092226    -0.219249872139    -0.222929078473    -0.335996801571    
-0.28428630629    -0.341644861954    -0.342547042738    -0.300906426084    -0.299449476393    
-0.180856241664    -0.193089967398    -0.208189744864    -0.198703017734    -0.272356794634    
-0.258815487067    -0.243838363676    -0.264498870859    -0.217757791822    -0.248690077244    
-0.284752377611    -0.270742237275    -0.314127870638    -0.394612658429    -0.342461476168    
-0.295731605502    -0.285571653544    -0.272728700493    -0.29657168815    -0.343483521872    
-0.258503176287    -0.247202929252    -0.178597396315    -0.192620529615    -0.212125473294    
-0.213924652911    -0.200543783308    -0.257715946869    -0.280227006764    -0.24968528095    
-0.209235085194    -0.260081803663    -0.239581438184    -0.294005179383    -0.274604226041    
-0.185742731085    -0.204483554343    -0.191760124322    -0.2178236951    -0.185326085284    
-0.283762010418    -0.242744453187    -0.247441022682    -0.264593760736    -0.193826823149    
-0.198348840761    -0.21692064321    -0.276959324338    -0.244456159242    -0.235271867446    
-0.247201302505    -0.226767272341    -0.283361180127    -0.193247254683    -0.285680021421    
-0.204413987225    -0.240129351815    -0.201226158024    -0.205187356413    -0.261931323595    
-0.191746781956    
1     2     3     49     
3     2     1     4     
1     3     4     47     
8     7     6     90     
6     7     8     5     
9     10     11     38     
11     10     9     12     
9     11     12     89     
13     14     15     88     
15     14     13     16     
13     16     14     99     
17     12     18     89     
18     12     17     8     
17     18     8     90     
19     20     21     38     
21     20     19     22     
19     21     22     42     
2     23     24     49     
24     23     2     22     
22     24     23     42     
16     25     26     99     
26     25     16     27     
27     26     25     28     
26     25     28     38     
27     26     28     31     
29     28     20     38     
20     28     29     30     
29     30     28     31     
28     31     26     38     
27     31     28     30     
30     31     29     10     
10     31     29     38     
28     29     31     38     
35     36     18     89     
18     36     35     37     
37     18     36     90     
37     36     35     40     
11     38     19     42     
19     38     11     29     
29     19     38     20     
29     38     11     10     
21     38     20     28     
19     38     21     42     
21     38     28     25     
26     25     38     99     
21     38     25     95     
26     38     31     9     
26     38     9     73     
31     9     38     10     
9     38     11     89     
39     40     35     41     
35     40     39     37     
37     40     39     91     
36     40     37     91     
35     40     36     89     
41     39     40     93     
41     40     35     89     
11     42     41     89     
41     42     11     19     
19     41     42     23     
38     42     11     89     
41     42     23     49     
19     23     42     22     
21     42     38     95     
24     42     21     96     
21     42     24     22     
23     42     24     49     
43     44     39     93     
39     44     43     45     
45     39     44     46     
46     39     44     91     
48     47     3     109     
3     47     48     4     
1     3     47     49     
1     49     47     105     
3     47     49     109     
24     49     42     96     
3     49     24     109     
24     49     3     2     
23     49     2     1     
23     49     1     50     
50     49     1     105     
23     49     50     41     
41     49     50     93     
41     42     49     93     
51     52     53     58     
53     52     51     13     
13     53     52     88     
13     52     51     99     
57     58     53     97     
53     58     57     51     
51     58     57     59     
53     58     52     97     
51     52     58     95     
51     58     59     95     
57     59     58     96     
63     62     64     65     
64     62     63     61     
61     64     62     88     
65     62     64     80     
63     62     65     85     
54     66     55     56     
55     66     54     57     
57     55     66     97     
57     66     54     68     
56     66     55     97     
54     66     56     98     
57     66     67     96     
67     66     57     68     
68     67     66     109     
68     66     54     98     
72     71     70     90     
70     71     72     69     
72     70     69     76     
26     73     74     75     
74     73     26     9     
9     74     73     89     
9     73     38     89     
26     38     73     99     
75     26     73     99     
75     73     74     100     
76     77     75     100     
75     77     76     78     
78     75     77     14     
78     77     76     101     
75     77     14     99     
78     14     77     88     
79     80     78     101     
78     80     79     65     
65     78     80     64     
65     80     79     81     
78     80     64     88     
62     80     65     85     
64     80     62     88     
81     80     79     83     
65     80     81     85     
82     83     79     84     
79     83     82     81     
81     83     82     102     
79     84     83     101     
80     85     62     129     
65     63     85     86     
86     85     65     81     
86     85     81     87     
87     85     81     102     
81     85     80     102     
62     88     80     52     
52     62     88     53     
52     80     62     129     
52     88     80     77     
80     88     78     77     
64     78     88     14     
77     78     80     101     
52     77     80     115     
52     88     77     99     
77     88     14     99     
64     14     88     15     
53     88     60     62     
60     88     53     13     
13     60     88     15     
13     88     52     99     
15     88     64     61     
15     88     61     60     
60     88     61     62     
13     14     88     99     
38     89     73     108     
74     89     17     100     
17     89     74     9     
9     17     89     12     
73     89     74     100     
17     89     36     100     
36     89     17     18     
18     17     36     90     
35     89     11     41     
11     89     35     18     
18     11     89     12     
36     89     40     117     
40     89     41     42     
40     89     42     108     
41     40     42     93     
42     89     38     108     
18     90     37     7     
7     18     90     8     
37     90     36     91     
72     90     6     71     
6     90     72     17     
17     6     90     8     
17     90     72     100     
36     90     17     100     
40     91     36     117     
39     91     40     44     
37     91     39     46     
44     91     40     114     
39     44     40     93     
36     91     90     122     
43     92     32     34     
32     92     43     50     
50     32     92     105     
50     92     43     93     
34     92     32     33     
43     92     34     94     