Title = " tecplot file for 2D Cavity problem " 
variables = "x", "y", "z", "velX", "cellCentroidY" 
Zone T = "nmesh0" N = 149 E = 467 DATAPACKING = BLOCK, VARLOCATION = ([4-5]=CELLCENTERED), ZONETYPE=FETETRAHEDRON
-0.41745815834    -0.5    -0.5    -0.4300082147    -0.33969382413    
-0.33821104813    -0.3    -0.4    -0.5    -0.41741512105    
-0.5    -0.5    -0.5    -0.5    -0.5    
-0.5    -0.41860062223    -0.5    -0.5    -0.5    
-0.41816796048    -0.5    -0.43346245512    -0.5    -0.43075397645    
-0.5    -0.5    -0.5    -0.41560975998    -0.39634945989    
-0.33276963805    -0.26415387702    -0.27676409483    -0.23336877561    -0.32791251751    
-0.35903713107    -0.38899332285    -0.5    -0.5    -0.4149222672    
-0.5    -0.5    -0.42031270266    -0.5    -0.40949591994    
-0.5    -0.5    -0.40546795726    -0.34200738938    -0.5    
-0.5    -0.41238322854    -0.5    -0.5    -0.40432208776    
-0.40513378382    -0.40545964241    -0.5    -0.5    -0.5    
-0.41817352176    -0.5    -0.5    -0.33084397547    -0.41487956845    
-0.41588535905    -0.5    -0.5    -0.40045493841    -0.40561062098    
-0.30998492241    -0.33065524837    -0.26108842105    -0.22041392326    -0.22906027462    
-0.30063694715    -0.2427204482    -0.242702547    -0.30518463254    -0.24258606722    
-0.43993908167    -0.41476941821    -0.41469320655    -0.41808357835    -0.3277609913    
-0.42391347885    -0.40986120701    -0.40359905362    -0.40607604384    -0.4106734097    
-0.42181283236    -0.29728317261    -0.33793058991    -0.39718410373    -0.36220404506    
-0.38879555464    -0.33150443435    -0.22467558086    -0.2693310976    -0.34231925011    
-0.24107302725    -0.24915324152    -0.31429108977    -0.32110860944    -0.37150645256    
-0.31548586488    -0.28796958923    -0.305768013    -0.33818015456    -0.30310287634    
-0.28587833047    -0.23312325776    -0.33568501472    -0.32209268212    -0.16738939285    
-0.25071310997    -0.3121239543    -0.29695540667    -0.3343488276    -0.23276233673    
-0.33942726254    -0.32574671507    -0.28730630875    -0.29246428609    -0.24865736067    
-0.22919301689    -0.33946800232    -0.14424198866    -0.14361406863    -0.21119880676    
-0.2402394712    -0.32929396629    -0.19837510586    -0.19645160437    -0.16309058666    
-0.20868697762    -0.089620292187    -0.22727786005    -0.11982141435    -0.18032833934    
-0.21524465084    -0.18367117643    -0.22853043675    -0.038092400879    -0.094810500741    
-0.04713287577    -0.23926316202    -0.11430221051    -0.058520920575    
0.33981467104    0.42960044238    0.4    0.42810857285    0.5    
0.39881754329    0.5    0.5    0.1    0.13700693754    
0.13330796726    0.2    0.33703198141    0.3    0.5    
0.41658102077    0.5    0.5    -0.035376344277    -0.1    
-0.033163526401    0.0    0.051409269487    0.049220714793    0.5    
0.5    0.5    0.41335376528    0.5    0.41950106621    
0.5    0.5    0.41851401329    0.5    0.5    
0.41915145516    0.41870498657    0.32824588323    0.14408802079    0.03543991968    
0.052400162046    -0.070394171848    -0.052761904895    0.25768143998    0.21832711995    
0.23277564141    0.16452430883    0.076917529106    0.052862812157    0.048223919968    
0.15265091045    0.17829310894    0.23814042066    0.2245709468    0.27016609907    
0.10964553803    -0.11893348396    -0.0080818677598    -0.11920000043    -0.17442565478    
-0.079890802503    -0.068741583773    -0.13555449361    -0.064639869175    -0.13365527251    
0.10323016346    0.1046394213    0.32446482401    0.29985645413    0.048260491341    
0.33604261279    0.28281047204    0.32649983882    0.29028022289    0.22529098708    
-0.11567308009    -0.11206135244    -0.0030102295461    -0.0049290945753    0.10754402934    
0.28847798705    0.23840468602    0.36509612203    0.15882793069    0.17298997537    
0.34245127439    -0.16469444335    0.19848746061    -0.0080562373623    0.13119843602    
0.0021690702997    0.12450686097    0.10476196557    0.28288769722    -0.05915017426    
-0.0022261636332    0.057966101915    0.19135580957    0.28304952383    0.34059783816    
-0.06353725493    -0.17014044523    0.19246333838    0.330745399    0.12770193815    
0.18876847625    0.11980842799    0.00053410825785    -0.066976070404    -0.14423176894    
0.013849774376    -0.072664380074    -0.19829428196    0.22808775306    0.30294573307    
0.27473658323    0.25749474764    0.40151166916    0.08257817477    0.099920667708    
-0.033202510327    0.074347198009    0.18371337652    -0.086417846382    0.028308650479    
-0.10072826594    0.28060570359    -0.068703122437    0.047414053231    0.12184236199    
0.046832572669    0.016877345741    0.1916718781    0.22895142436    0.16244494915    
0.075854338706    0.23688864708    0.0078520355746    0.089447163045    0.097218066454    
0.24710139632    -0.0056538614444    0.14390049875    0.16411808133    0.13191781938    
0.052678707987    0.22371904552    0.19043906033    0.22169439495    
0.5    0.42842079665    0.5    0.5    0.4035384777    
0.5    0.5    0.5    0.5    0.5    
0.4156556509    0.5    0.39991355588    0.5    0.3    
0.34051168889    0.34442981311    0.4    0.41575513319    0.5    
0.5    0.5    0.5    0.43150487733    0.43011353568    
0.5    0.2    0.23931408161    0.24661425142    0.39269393682    
0.29396832588    0.33582110334    0.29022592306    0.24088832304    0.19445884755    
0.14708971977    0.29500412941    0.28491718881    0.06041772808    0.071239039302    
0.13123981904    0.13031650259    0.070287145674    0.32971925363    0.35577994585    
0.41248016854    0.32514038977    0.39476585388    0.5    0.33713707823    
0.15496109524    0.109153606    0.11208199456    0.23030118148    0.28164586425    
0.011390452273    0.17494806647    0.23183135338    0.23531558774    0.32576542873    
0.38472351432    0.32543430837    0.4129810924    0.5    0.5    
0.1741451472    0.23623451745    0.17537589605    0.11385296285    0.26840096712    
0.40507993102    0.5    0.5    0.41332420707    0.5    
0.41369006038    0.5    0.5    0.40362745523    0.5    
0.43584918976    0.5    0.21264617145    0.41701319814    0.5    
0.34166565537    0.27060064673    0.20888838172    0.17286729813    0.31602996588    
0.34530383348    0.39659529924    0.09305486083    0.19749359787    0.26714044809    
0.42494803667    0.33254820108    0.40685939789    0.28694593906    0.26864483953    
0.34509626031    0.32927832007    0.14994361997    0.16062226892    0.24148575962    
0.31186491251    0.23358654976    0.053837504238    0.35113686323    0.19516539186    
0.1727938056    0.24105484784    0.3139936626    0.41171085835    0.20952318609    
0.12395049632    0.21205984056    0.20654162765    0.17410893738    0.10425288975    
0.12512798607    0.01258007437    0.051262147725    0.29045191407    0.27208101749    
0.14730614424    0.34185385704    0.30619335175    0.27146923542    0.30808600783    
0.36249628663    0.24630178511    0.11507255584    0.26062273979    0.20235726237    
0.19620914757    0.16908699274    0.10178088397    0.099740616977    0.015550041571    
0.3409306407    0.21491414309    0.16693411767    0.12354470044    0.021488841623    
0.020682629198    0.18909034133    0.085725553334    0.099927298725    
380.086730072    373.934347478    368.52540187    331.862240513    212.102786629    
200.043728263    398.427319913    398.939369276    396.853969989    391.969935408    
385.516032946    349.974015268    201.980964433    206.145972177    211.051233557    
398.946999232    399.540910757    398.558090876    398.197020806    399.577145644    
398.895339034    396.8700216    396.146787064    228.702497864    222.584582274    
269.682605536    262.105267391    220.463718098    227.316018833    205.206492745    
195.529451775    61.6774868419    59.1021091192    104.008863465    109.327437738    
332.335206181    283.321190549    313.954764176    347.380778273    343.269158396    
114.620133725    121.012730828    332.355389304    283.028134379    207.913882552    
225.126083496    56.2684053753    26.0750203453    37.2697325195    124.609719983    
172.547184341    65.2803210287    86.240608404    196.102049384    53.4682092599    
53.8261745381    111.45867726    124.641498566    155.680393243    102.504686548    
278.18559357    277.27936837    211.167646461    325.181519983    301.817749786    
318.905613081    379.691399084    387.936944856    388.124448075    377.212896301    
396.571005794    396.308416914    395.733635569    395.83322764    391.719554151    
393.950424279    393.0610523    394.986260897    381.361756868    385.279714733    
375.208550013    367.213611908    380.338658025    361.257435219    384.699633986    
377.967386289    360.848548507    373.218612881    358.638571189    371.319364332    
375.591545627    392.927270492    396.20093704    392.644826404    396.459336766    
398.645533957    399.000090119    397.195677676    398.289022705    399.073661149    
397.285708616    399.370830797    397.870507423    396.794255086    391.071461849    
394.045717362    382.450243942    394.139601293    384.188596298    373.004795421    
382.970647754    362.530117348    388.090038371    389.502592266    393.970361507    
389.474496913    392.702641055    379.359362655    385.270349833    366.293595543    
364.761691004    359.018222453    329.307049036    353.734880833    219.661738203    
256.331547489    371.773938612    380.099705665    352.982534714    395.248003564    
394.933443818    397.288214333    388.265894472    394.228825784    396.861655562    
390.049949384    395.885706589    394.269157669    371.711793947    390.197635826    
396.218402241    383.099638259    364.795150924    340.224596306    316.730649515    
376.801271031    387.913623309    395.468952756    358.408814899    397.741118825    
397.562691674    391.893382443    392.048873973    352.827199837    361.223774461    
305.015017266    172.976597736    388.654188491    389.95515753    394.049045197    
396.457873854    389.799817573    383.282791566    388.326094194    393.704640476    
396.247879566    386.472524433    372.74195337    258.943539838    325.695335197    
339.53224936    345.884566307    380.953598283    370.036724191    323.397886618    
276.864027214    336.926412039    301.515268359    394.342363917    397.692254504    
393.58945533    388.867321039    382.083072418    390.225933739    372.613234723    
364.456871762    385.324899477    375.709169382    349.566104953    373.648282278    
359.696370002    386.185117452    375.237043665    394.97995473    387.351009744    
372.673042318    392.0242454    378.675982229    389.905886753    389.37425209    
384.314473788    393.69510289    394.959257296    388.234619202    380.303556816    
377.049186472    389.600216346    380.244771428    357.140470741    354.943981649    
374.171240338    392.952700063    396.971434056    398.441920834    389.148198731    
397.892739739    396.03311363    392.813966237    382.782232339    380.770553072    
396.771247999    395.027704479    377.148737928    389.066807398    393.512492286    
385.343378033    383.112950038    391.958747528    393.653638446    385.303803823    
381.793932442    339.138233699    357.207188465    346.720711923    363.63430826    
359.315963428    350.691904796    321.88604384    334.13693506    324.903508022    
379.258187213    273.245853543    328.902643121    376.270779209    300.78046571    
391.24367842    389.442124309    394.601213404    380.421827142    383.184436005    
382.620920825    392.27162763    387.276801127    390.991529232    398.3736287    
392.798055008    391.061423078    398.540910294    398.342470225    388.619255086    
398.929315583    365.619572811    377.40566806    385.238424027    390.781283566    
381.136995361    377.428674394    300.522265724    266.577928171    183.432415873    
236.382571716    267.914328722    213.853729469    282.970055597    204.482003791    
305.477547457    348.6175208    346.681760449    329.133357345    293.38637656    
322.826611252    227.476220158    276.492936436    361.074922627    372.039708936    
368.790641914    369.365937792    333.307753306    348.011688604    354.1622042    
334.173979979    336.385195318    365.91194024    342.390587823    357.245108465    
354.04042604    330.108527381    361.732512615    350.91952265    385.655936608    
386.283791705    378.893044411    377.762554055    383.74031255    388.271154038    
381.052960208    388.220466211    391.909858376    383.177619306    392.360318483    
381.104682902    386.296410958    376.501776452    375.816641631    372.315482461    
374.359294156    379.832975452    389.415870178    326.866932113    366.497912166    
388.181146678    340.828740349    389.831266899    355.604664932    347.91776609    
361.481197337    372.410818535    340.188887272    350.902547503    380.19674641    
353.609605956    344.547090115    292.420267327    255.85677637    234.854356119    
231.459433309    284.739329124    301.342222559    319.401368404    329.081874021    
339.918787243    313.478520809    315.350675911    235.657150689    256.089608011    
215.700031391    248.35199669    269.885019041    275.713721485    111.131050792    
201.792590844    204.755152158    358.995743202    345.299118817    342.783682754    
347.965993805    335.415141455    330.64958919    359.456907974    332.518135531    
367.276421299    373.556353586    370.210921111    364.45444461    367.41554946    
355.331510098    372.903848789    362.871943302    355.373219388    359.211643414    
371.172260395    372.474860194    374.697258587    376.749129883    342.991358445    
330.638350381    346.584224474    336.492692171    338.351865316    323.336249323    
323.728814036    321.187774876    386.249178013    381.2408021    376.274845747    
379.536925307    378.658758092    389.373475249    377.472910087    374.963859243    
373.123169349    379.802900453    387.56943336    376.112358654    365.581863252    
366.215737403    329.394387256    306.698512255    298.764529718    314.0350874    
304.228495249    293.922475932    323.6128422    368.360063033    364.012745922    
356.243428598    346.034155475    361.468713176    365.406095777    323.763780221    
336.392687977    374.500496977    358.123659262    357.416431355    352.008333846    
369.34424783    346.800228074    379.093076556    376.617971128    364.959218989    
320.767383414    330.523248829    310.791146695    313.538873716    322.972221316    
325.393319312    355.710580038    336.822983533    344.237882174    337.417363511    
361.019212113    351.552697676    333.01486279    338.856908658    328.680081823    
322.446414025    307.220555677    304.61118754    310.315152304    294.585169909    
305.816614425    299.408787269    352.23624646    363.378858754    317.04952914    
303.898545495    309.582757958    292.840115531    292.672841658    311.386070669    
314.207702324    295.948958933    301.862239184    289.196831725    299.498659325    
262.096495545    262.070810329    279.255978086    248.2219294    269.738688431    
274.697224111    253.803776872    270.999574827    292.981049515    291.869343974    
276.276977304    255.202584376    
0.373928411151    0.398458963834    0.441090132846    0.403640019936    0.453987609472    
0.473682442186    0.106290715813    0.14351062674    0.157889151955    0.34481222602    
0.317133940766    0.380603260936    0.457437685006    0.478767073993    0.458139855367    
-0.062473092911    -0.0431390218772    -0.0176448007162    0.0239135925098    0.0501243433188    
0.0834681486555    0.0782227342316    0.0999520172245    0.459864793405    0.4818810142    
0.464356641081    0.443688331757    0.482305993988    0.460347779534    0.456799172928    
0.477860990873    0.479593336129    0.479593718532    0.459610244649    0.457691319804    
0.396694832548    0.435934182006    0.373244951886    0.350133712733    0.400257135975    
0.478948644776    0.478755813855    0.379815351706    0.44091423182    0.438266936539    
0.413072143478    0.478896432523    0.479273561152    0.47939776278    0.43916879675    
0.417582762525    0.45623816344    0.458120389247    0.396748887925    0.479582954462    
0.479180437552    0.457482613242    0.435214790133    0.427219376284    0.479070770055    
0.399966649264    0.436935749639    0.424861499235    0.394431025935    0.381303556888    
0.377673981331    0.249421210596    0.217458098806    0.193375596124    0.227335226835    
0.0438266085919    0.0771995542847    0.0453415361371    0.0799819986889    0.0983687408006    
0.125083816781    0.0976898589338    0.0444142676365    0.144272907311    0.178557972455    
0.192400135338    0.276560008925    0.269534063031    0.299254798206    0.229054808083    
0.213840354519    0.272706073437    0.195872028449    0.107829258815    0.117020414726    
0.113107817896    -0.0517733556213    -0.0785425208946    -0.0747560633798    -0.122178225342    
-0.114493811683    -0.0803672819097    -0.0986836223439    -0.0785372772577    -0.086046983498    
-0.0465935473679    -0.0874119294049    -0.0380711285942    -0.0451092486076    0.112141958423    
0.102420401682    0.140652105186    0.0621358926004    0.0852137188297    0.158582500414    
0.0457056826995    0.104669151305    0.0611623978381    0.034867186883    0.0481230400712    
0.0831890132826    0.0222546360902    0.0955272272712    0.0340945124069    0.337282460198    
0.339349476191    0.311880190512    0.3473607347    0.308683551812    0.377835693816    
0.37794410929    0.256830631014    0.279617985682    0.28393208615    -0.0665802509781    
-0.0467769548578    -0.0732139496434    0.0384507643231    0.0383427164738    -0.00468818771557    
0.0697104892704    -0.0050110774091    -0.0481907193983    0.305309678928    0.279599102249    
0.289587243645    0.224558051681    0.27718870248    0.347906800016    0.345526584847    
0.259329007598    0.287663450258    0.291441537361    0.28430019649    0.254926924414    
0.25629349497    0.219706279845    0.218538871154    0.324605582336    0.357337281927    
0.363449102383    0.401402850779    0.123502930842    0.124758613687    0.173561179615    
0.181685746678    0.146920378081    0.167852574594    0.14800345471    0.178093705758    
0.184172884739    0.199633775236    0.224887217196    0.358468533373    0.311962459135    
0.278474765456    0.282952568882    0.316558565764    0.356167676264    0.327070917778    
0.36610238935    0.31260781378    0.330183750151    -0.101352767098    -0.131554469488    
-0.0935547964707    0.172131191804    0.150495323616    0.170031349576    0.192062365171    
0.243696779628    0.203986658478    0.133616454816    0.167927987553    0.236547565039    
0.225465766687    -0.00742142308675    0.0551041189681    -0.00861887649027    0.00664551398498    
0.0520050993535    -0.0185026004786    -0.0142471582863    -0.0626914149816    -0.0492548024355    
-0.0548680768773    0.11094313429    0.117641727131    0.0588643408889    0.102889646187    
0.140141114259    0.0656631412853    0.123591221453    0.201550061228    0.19666801304    
0.156567788838    -0.0336307216879    -0.00710124787057    -0.0135694135413    -0.00606189905508    
0.0154581661994    -0.028709332718    -0.0522002339129    0.0670732976052    0.0604290910492    
0.0037850719079    0.0315675175848    0.0986212123739    0.0623994337742    0.114045781479    
0.0690126311239    0.0636319775055    0.0322851801005    0.120480819542    0.14950576705    
0.17032084847    0.14542647065    0.0805638279748    0.144491089795    0.080432536081    
0.285876428373    0.248129690008    0.236657987917    0.213163309893    0.318618039912    
0.266814623986    0.32080010258    0.251501060479    0.289749922388    0.315150219245    
-0.0953368317569    -0.050149166097    -0.0633550895994    -0.00112682869032    0.000759493290704    
-0.0564217212124    -0.114362748012    -0.121601756183    -0.0365689647315    -0.0110446870343    
-0.0658482477841    -0.0480228664649    0.0175342966179    0.00258972440578    0.0185952912344    
0.00437858064356    0.126180248993    0.0565218426235    0.0320439642287    0.173566347778    
0.20425940348    0.178917972289    0.288076418301    0.330046463798    0.395335293243    
0.345137409217    0.311501926463    0.360304112589    0.326635867723    0.382585397952    
0.309226632504    0.156066906773    0.122999896921    0.165159846506    0.273886512355    
0.231956991424    0.359441113767    0.303789747242    0.126035086257    0.0907645918636    
0.0637393781638    0.0892414592838    0.193895144493    0.128837519302    0.16343805592    
0.22815537035    0.194655314658    0.164749781933    0.238429504071    0.123320492333    
0.122877703472    0.176291082297    0.0799915100863    0.12135188528    -0.0836697940513    
-0.0627014403781    -0.0247956025547    0.00330182462845    -0.00240406468251    -0.0185069088175    
0.00109969360223    -0.0971840803401    -0.127970119181    -0.024875160844    -0.119047465722    
-0.0875454956983    -0.116616750503    -0.0580896054447    -0.0644612382701    -0.0740505559415    
-0.0282714567434    -0.0921989611097    -0.130055921392    0.283139337707    0.234343687021    
0.227426116807    0.239283467061    0.230065562397    0.183462893552    0.228032420314    
0.189346579641    0.181226295981    0.213740524257    0.156815415364    0.227361564685    
0.254707573941    0.283633286509    0.265751962175    0.304294864861    0.29542009392    
0.337819466904    0.290418415277    0.286373963524    0.248558255486    0.17518095266    
0.132464372049    0.19605866791    0.195687173553    0.291591894285    0.268451246728    
0.327699646752    0.266958062864    0.263662389971    0.237394713857    0.436108401285    
0.348574680175    0.378529737073    0.0411968695422    0.0752261842055    0.0691426177469    
0.0572485463321    0.107726911793    0.135491818301    0.0854242208001    0.131393817386    
0.0688598658154    0.0351174832203    0.0214163340662    0.0446995020869    0.0200657655611    
0.025842986854    -0.0119772881742    0.02823176592    0.0224609976233    0.0529162261069    
0.0151950320809    -0.0672269468051    -0.017842553352    -0.0213271512444    0.0697034876807    
0.116209137697    0.0541718714268    0.0685664819866    0.120007197799    0.134428993816    
0.113560531612    0.155259834872    -0.110510032821    -0.0998272242893    -0.0460012004485    
-0.0951380233758    -0.0440721304303    -0.120861025319    -0.02597578018    -0.0279486099152    
-0.0432558698532    -0.0475937011824    -0.147436527905    -0.0478390211069    -0.0304523853339    
-0.0405878673247    0.235956248815    0.251098573873    0.236664533443    0.248354440632    
0.276117404025    0.297125940028    0.261599617375    -0.0300205724551    0.0645108351466    
0.0824631756975    0.0868134547484    0.0573784416414    0.0889519471073    0.166255212389    
0.185699971165    0.0317374063213    0.0463850097412    0.0583333933856    0.0592881954228    
-0.00522687981385    0.0727851332086    0.0309367273304    0.00680053691031    -0.0088553335722    
0.157693718928    0.12085651623    0.180986800189    0.189185595781    0.194577778212    
0.124901564861    0.0277747992418    0.10488000604    0.0496646065304    0.0990393875783    
-0.0226109325421    0.0225601553227    0.0678409278936    0.05209547014    0.0729375031078    
0.101113847749    0.120253866359    0.143798586639    0.130155348589    0.141240258671    
0.235344640883    0.229943305106    0.0370898140943    -0.00107800935506    0.116402756884    
0.144810360356    0.155633500778    0.156735448573    0.181416495882    0.163137414761    
0.169616821056    0.188290574232    0.178411223974    0.14320585552    0.109940813676    
0.261251951838    0.247573313832    0.220040296999    0.2496337307    0.204797189055    
0.214082786845    0.239100465352    0.195491998241    0.127146724395    0.150920183313    
0.18754746034    0.202893980767    
1     2     3     13     
3     2     1     4     
4     3     2     26     
4     2     1     30     
5     8     6     30     
6     8     5     7     
9     10     11     23     
11     10     9     12     
12     11     10     84     
13     3     1     14     
1     13     14     81     
1     2     13     30     
15     16     17     37     
17     16     15     18     
18     17     16     30     
19     20     21     61     
21     20     19     22     
19     21     22     96     
22     23     24     96     
24     23     22     9     
9     24     23     11     
24     23     11     48     
11     23     10     48     
25     4     8     30     
8     4     25     26     
25     26     4     2     
25     2     4     30     
25     26     2     18     
18     2     25     30     
15     29     28     37     
28     29     15     27     
5     30     17     25     
17     30     5     31     
31     17     30     37     
31     30     5     33     
4     30     1     6     
6     4     30     8     
6     30     1     71     
1     30     13     81     
2     13     30     16     
25     5     30     8     
25     30     17     18     
13     30     16     86     
2     16     30     18     
16     30     17     37     
5     30     6     71     
31     32     33     5     
33     32     31     34     
31     33     34     35     
30     33     31     37     
5     33     30     71     
35     33     34     118     
31     33     35     37     
33     37     30     71     
31     37     29     17     
29     37     31     35     
35     29     37     36     
36     37     35     118     
29     37     36     83     
29     17     37     15     
16     30     37     86     
15     16     37     28     
28     37     29     83     
16     37     28     38     
38     37     28     83     
16     37     38     86     
44     45     46     81     
46     45     44     47     
47     46     45     84     
47     45     44     55     
24     23     48     96     
24     48     11     50     
49     48     23     96     
23     48     49     10     
10     48     49     92     
11     48     10     84     
50     48     11     90     
24     48     50     91     
51     52     39     66     
39     52     51     53     
53     52     51     88     
54     55     38     94     
38     55     54     44     
44     38     55     86     
44     55     54     47     
47     55     54     88     
44     55     45     86     
47     45     55     90     
40     52     56     93     
56     52     40     39     
40     39     52     66     
42     57     58     89     
58     57     42     59     
59     58     57     95     
60     61     62     87     
62     61     60     63     
63     62     61     19     
64     61     65     76     
65     61     64     21     
21     65     61     20     
21     61     64     96     
19     20     61     63     
19     61     21     96     
62     61     19     91     
41     66     51     39     
51     66     41     67     
67     51     66     88     
67     66     41     58     
41     66     39     40     
51     52     66     88     
41     66     40     89     
40     66     52     93     
58     67     66     70     
58     66     41     89     
67     70     58     50     
50     67     70     90     
50     70     58     91     
66     70     67     105     
58     70     66     89     
6     71     72     73     
72     71     6     1     
1     72     71     81     
1     71     30     81     
73     71     72     74     
37     71     33     100     
30     71     37     86     
72     75     74     114     
74     75     72     73     
72     74     71     114     
61     76     64     96     
64     76     78     79     
78     76     64     77     
80     79     78     131     
78     79     80     49     
49     78     79     64     
49     79     80     92     
49     64     79     96     
64     76     79     96     
44     81     13     86     
13     81     44     46     
46     13     81     14     
46     81     45     84     
44     45     81     86     
13     81     30     86     
30     81     71     86     
72     81     82     114     
82     81     72     1     
1     82     81     14     
72     71     81     114     
14     81     46     12     
82     81     14     12     
82     81     12     84     
12     81     46     84     
38     83     68     94     
68     83     38     28     
38     37     83     86     
36     83     37     118     
10     84     48     92     
11     48     84     90     
46     84     47     11     
11     46     84     12     
11     84     47     90     
47     84     45     90     
85     84     10     92     
10     84     85     82     
82     10     84     12     
82     84     85     114     
45     84     81     114     
37     86     71     100     
71     86     81     127     
45     86     55     127     
81     86     45     127     
44     86     13     38     
38     86     13     16     
55     86     38     83     
83     86     37     100     
55     83     38     94     
55     86     83     100     
59     87     62     95     
62     87     59     60     
62     87     61     95     
47     88     54     67     
67     47     88     90     
67     88     54     51     
55     88     47     90     
54     88     55     94     
54     51     88     53     
67     88     66     105     
66     88     52     103     
54     53     88     94     
52     88     53     94     
70     89     58     95     
66     89     70     119     
41     58     89     42     
40     41     89     43     
40     89     66     119     
41     89     43     42     
40     43     89     121     
57     89     42     43     
58     89     57     95     
57     89     43     121     
47     90     67     50     
50     47     90     11     
50     90     70     91     
67     70     90     105     
67     90     88     105     
50     48     90     91     
48     84     90     92     
45     55     90     106     