Title = " tecplot file for 2D Cavity problem " 
variables = "x", "y", "z", "velX", "cellCentroidY" 
Zone T = "nmesh0" N = 165 E = 467 DATAPACKING = BLOCK, VARLOCATION = ([4-5]=CELLCENTERED),  ZONETYPE=FETETRAHEDRON 
0.5    0.4303612709    0.5    0.5    0.5    
0.5    0.5    0.41981491446    0.5    0.5    
0.5    0.5    0.42305210233    0.42351570725    0.5    
0.42452907562    0.5    0.5    0.42249646783    0.5    
0.5    0.41016995907    0.5    0.40371522307    0.5    
0.5    0.5    0.41874924302    0.40574300289    0.5    
0.41083729267    0.5    0.5    0.40966212749    0.5    
0.41441592574    0.40398982167    0.5    0.40851894021    0.5    
0.40686893463    0.40083095431    0.5    0.5    0.42067414522    
0.5    0.40772935748    0.5    0.404743433    0.5    
0.5    0.41910865903    0.41396996379    0.41279682517    0.41125491261    
0.42098331451    0.41994029284    0.10141577572    0.19872111082    0.15019595875    
0.17428602278    0.073977522552    0.31296682358    0.38542744517    0.36976534128    
0.31500515342    0.36005350947    0.30632644892    0.35427135229    0.25505360961    
0.3027382791    0.28961977363    0.25203999877    0.33483195305    0.27065211535    
0.32815802097    0.32033136487    0.29253688455    0.3377006948    0.25532969832    
0.2825846076    0.24962322414    0.32450819016    0.32779544592    0.23224464059    
0.20047597587    0.33092859387    0.21880926192    0.29648944736    0.33286830783    
0.34095993638    0.4014864862    0.094177126884    0.03918877244    -0.026364712045    
0.036933004856    0.21098193526    0.23321388662    0.17064832151    0.11557609588    
0.045684359968    0.11566399038    0.15766808391    0.33427661657    0.28886640072    
-0.013419246301    0.24479758739    0.18614409864    0.3339946568    0.34120205045    
0.10168384761    0.031862605363    -0.04975425452    0.27424177527    0.32784238458    
0.28737694025    0.22722111642    0.20131455362    0.16960006952    0.079051792622    
0.092493660748    0.15706507862    0.30145633221    0.11585833877    0.21100731194    
0.14475268126    0.029059011489    -0.019574807957    0.051468979567    0.15591920912    
0.2590701282    0.23338773847    0.15730819106    0.13262072206    0.14505885541    
0.24076008797    0.19546446204    0.14146855474    0.27395620942    -0.046197623014    
0.10845112056    0.18599182367    0.015071149915    0.25979170203    0.25330665708    
0.02622140944    0.14986515045    0.042061634362    0.0158755593    0.093645699322    
0.09027723223    0.13408590853    -0.073288328946    0.040998559445    0.0025002514012    
-0.045799732208    0.13770031929    0.0036510885693    0.19300557673    0.26265394688    
0.18562467396    0.20268413424    0.0041586537845    -0.11848574132    0.19189736247    

-0.17854612253    -0.28406116366    -0.2691570305    -0.24610955706    -0.33691688491    
-0.32665781431    -0.004451597045    0.024051796645    -0.083182727769    0.0074893949164    
0.13091126552    0.069117591781    -0.28728654981    -0.36506685615    0.055803920966    
0.025440203026    -0.062441547325    -0.04523981653    -0.095246225595    -0.089695318892    
-0.15080354984    -0.11714138836    -0.25962061136    -0.27180847526    -0.22633060806    
-0.32947423378    -0.16930403225    -0.051343418658    0.11606233567    0.060016010399    
0.10955008119    0.11338168767    0.15525254239    -0.075761467218    0.23105213736    
0.20783288777    -0.20774790645    0.0027003096484    -0.056331504136    -0.10925327537    
0.007421862334    0.11519511789    0.17639973484    0.13852409406    -0.19487705827    
0.056480263476    0.037101287395    -0.066395926384    0.14297755063    0.23719398748    
0.23650637431    -0.28984734416    -0.12528398633    -0.13690534234    0.018277786672    
0.026157518849    0.19208976626    -0.40612122416    -0.40320238471    -0.5    
-0.40987175703    -0.42497992516    -0.00888705533    0.10332142562    0.064577847719    
-0.055106613785    -0.20423352718    -0.096046172082    -0.19139400125    -0.1914806515    
0.13677279651    0.1197059527    0.046330191195    -0.12296640873    -0.032839149237    
0.025269117206    -0.047051247209    -0.2065640837    -0.30777356029    -0.22811315954    
-0.37153184414    -0.29175436497    -0.30754390359    -0.00079069216736    -0.034587264061    
-0.026395486668    0.03782395646    -0.037056777626    -0.14089852571    -0.12366594374    
-0.059011764824    -0.035562954843    -0.10807587951    -0.037219654769    -0.097555346787    
-0.32322400808    -0.26491120458    -0.24114374816    -0.17579731345    -0.34224000573    
-0.31761169434    -0.31831282377    -0.27471598983    -0.26527518034    -0.3071628511    
-0.23916488886    -0.27884525061    -0.16256788373    -0.29389184713    -0.21549329162    
-0.18898910284    0.051580730826    0.0026446154807    -0.11606113613    0.1796207428    
0.07962167263    0.058760710061    -0.3179461658    -0.23590271175    -0.27347123623    
-0.20451775193    -0.28313827515    0.07716075331    -0.15168713033    -0.16312615573    
-0.09261482209    -0.040290866047    -0.15404245257    -0.082342945039    -0.22678218782    
-0.23009064794    -0.083488866687    -0.0029765672516    0.0047129187733    -0.031002148986    
0.0042603965849    -0.07660485059    0.1021591574    -0.32652196288    -0.24319313467    
-0.204676494    -0.16343681514    -0.20733688772    -0.052988871932    -0.11029076576    
-0.17033040524    -0.080107726157    0.024648226798    0.12777155638    -0.085883244872    
-0.021924061701    -0.15312837064    -0.18226191401    -0.12770707905    -0.27010452747    
-0.13083967566    -0.073257319629    -0.10164608061    0.063307881355    -0.075726859272    
-0.34643083811    -0.037892248482    -0.19605831802    -0.16018170118    -0.10078287125    

0.035621742557    0.087716415524    0.04352171725    0.12563835024    0.093989183076    
0.19038062281    -0.054975019742    -0.012617296539    -0.019241548604    0.046792553739    
0.050671573191    -0.029669427208    0.0014200225705    0.047403976321    0.34025933377    
0.39658492804    0.32777533286    0.14793464846    0.12056104839    0.070556265639    
0.14319223715    0.02897882089    0.33175140539    0.28518301249    0.23331765556    
0.29047997712    0.32438040068    -0.069024145603    -0.014157147147    0.1450578912    
0.17947740853    0.24033164112    0.15304269004    0.38591915369    0.22544000624    
0.16132470965    0.16738274693    0.24048687965    0.26810845733    0.23606320041    
0.11326169968    0.30213809013    0.32582332107    0.41649616432    -0.028198638931    
-0.13308059917    -0.10843267292    -0.1328558622    0.0837681517    0.10549143739    
-0.0051805641003    0.19909051061    0.20724311471    0.31529143453    0.20824097097    
0.30531173944    0.25303474069    0.17772006989    0.20914195478    0.1568161242    
0.11003278196    0.094609223306    0.38198536634    0.38756379485    0.052292995155    
0.17286199331    0.068723715842    0.30213648081    0.25247895718    0.26416516304    
0.0090291341767    0.13685636222    0.037774868309    -0.088732130826    -0.10657566041    
-0.050448991358    0.056125931442    0.16002696753    0.12006647885    0.056932210922    
0.024736555293    -0.011472829618    -0.065370410681    0.28414472938    0.32898157835    
-0.024072546512    0.1615049094    0.11095100641    0.0098743904382    0.11017861962    
-0.028588078916    0.042325694114    0.31131532788    0.33446398377    0.28269585967    
0.17034308612    0.23166464269    0.34980875254    0.32023024559    0.11625244468    
0.065575197339    0.23589520156    0.15782602131    0.25363692641    0.20843856037    
0.087443321943    0.13507446647    0.12871466577    0.028005558997    -0.073836684227    
0.2219312489    0.30914595723    0.26697871089    0.22223295271    0.21038195491    
0.33457097411    0.29367023706    0.066469952464    0.078827299178    0.0038494174369    
0.047855906188    -0.022462427616    0.24057671428    -0.031522978097    -0.052825815976    
0.041371244937    0.059226922691    0.034136377275    -0.057664580643    -0.10202209651    
-0.067244969308    0.036128032953    0.052815146744    0.17605555058    0.29424887896    
0.19721028209    0.2294396162    -0.01128491573    0.084541067481    -0.011554532684    
0.1350004971    0.21694633365    0.17704497278    0.26113656163    0.13926628232    
-0.044534139335    -0.10398387909    0.21341387928    0.26289540529    0.20955140889    
-0.0038021896034    0.17283803225    0.11546137929    0.11486391723    0.21634921432    
-0.07355145365    0.12980239093    0.19533498585    0.10828005522    -0.038680508733    
0.15245999396    0.27586504817    0.26334768534    0.052078723907    0.32066789269    

399.246112398    398.289388814    396.133894324    399.159541756    398.075656904    
391.621982299    395.276937543    391.655033833    395.555578245    385.550677927    
392.527393918    385.499611193    389.189773708    392.300817577    397.06068789    
397.013671889    395.09575931    394.07403287    394.447139681    392.247185418    
395.867081737    390.031951761    392.876140955    398.718029744    399.051090691    
398.453776248    397.450263413    387.757689094    388.647900827    382.108487425    
379.692874546    388.326264439    390.450537912    382.209808333    382.729835526    
397.344346161    397.698905687    396.339581183    395.389382267    396.752111264    
397.556355492    396.437044455    395.145418025    394.770430084    393.728192218    
395.572885691    391.939122704    384.582919421    385.529888642    394.963936776    
391.448607089    389.203739835    389.470186642    391.23463201    391.550113885    
394.122284676    394.081098073    386.942436728    392.116700278    387.000715945    
391.297044976    388.600232437    370.05196177    394.808131818    393.851239319    
377.163637488    387.949279293    383.037429123    389.802221447    373.157934729    
370.789254421    379.940954455    368.063124799    383.177463544    380.141987429    
398.885126576    399.21614974    395.474657424    396.441852937    394.892156051    
395.268089001    396.016078886    398.032163035    396.707158294    397.284795349    
394.740483019    393.401118985    391.487066938    394.707690916    390.061413241    
393.142693678    388.899869461    390.192774395    394.441226806    393.097821488    
398.328528539    398.559665163    389.59043568    395.195012122    396.137259318    
390.953068527    395.603177835    394.508243256    382.126142271    384.902996683    
384.607463373    373.357851791    391.299534606    380.977815322    385.152465804    
369.749163242    377.991180594    396.036302949    373.771861067    397.673606866    
389.602293298    382.510958763    396.074273392    394.339836673    387.915770014    
391.731460219    360.355059763    390.348256327    354.409867655    378.40797849    
393.850861171    396.416954423    396.440766554    394.28595867    393.531016821    
384.16177792    365.590789937    383.910266269    366.959766699    376.159149256    
378.649042173    384.262033858    380.078026964    384.409596469    387.803140888    
396.131660853    390.028978294    392.037836946    394.033836756    393.396761366    
395.142586513    393.39362355    390.052405493    387.557306989    386.943707739    
389.613854443    339.89602276    341.221531431    353.304025118    347.940081628    
348.397694735    385.51432391    383.29608677    373.344782691    377.986163274    
373.366068544    372.736351549    352.771400107    359.600651156    371.839929585    
381.291646789    379.787610274    369.188780914    358.293975888    360.262639542    
386.950677484    387.93307517    391.135757654    388.100501906    388.3254047    
389.194614865    385.019967584    390.638135489    393.535800313    392.83476896    
388.503718042    391.847200242    373.98994238    381.740221157    377.551654621    
374.528480769    387.058471586    381.52960253    387.130677311    379.883729813    
376.501308695    377.767168718    343.434859843    367.035806145    358.013093613    
364.84129286    373.716852614    370.469498117    368.227555645    366.694865894    
350.281049331    359.641837556    369.122514438    362.645099496    381.792017774    
381.5378736    383.60801297    378.90502203    386.636420892    384.970834102    
381.071071477    376.174911696    379.395888123    382.995673368    385.247918336    
383.601039282    374.471530948    376.703442876    373.50113168    379.588785117    
382.446530608    367.328948979    377.011746729    372.528621774    366.71178536    
383.284516381    394.130269085    391.005601193    388.889386354    385.821908463    
390.758376949    391.810249653    392.860607038    391.392130834    387.873922816    
389.391835758    384.755775943    385.593526907    388.958851909    389.13750733    
386.794127873    393.953616529    391.349716616    390.240217159    389.885053737    
394.990527272    388.976396813    383.17931336    389.026721742    382.452693366    
380.824954657    384.452057285    383.466115419    384.161841223    388.515956812    
382.745693264    383.087713052    390.870992572    391.900921452    389.165479364    
394.942477589    395.223438152    389.623264219    385.512655048    383.638069154    
386.629586049    389.571720335    385.99339302    383.725174983    381.694766007    
384.057772991    378.224527926    387.058552191    383.369003598    382.995354513    
373.106788444    371.115976614    369.529729267    365.249093861    385.29325083    
385.987918053    383.645193153    385.889102963    385.536951932    376.161827877    
380.003395089    385.162975163    387.888608974    381.099432675    387.891300694    
388.196083125    381.13209662    380.074269787    378.355671781    379.912711923    
382.002953909    380.722298425    377.729819743    378.026071418    384.223401492    
381.042778784    383.220256915    363.392558729    371.953979817    361.251759987    
378.484131232    375.458877767    377.416848347    372.303320036    377.716543086    
367.373794744    372.550816643    362.338514006    359.845180126    364.291186353    
354.936849365    377.252108436    381.498267525    382.382453807    386.187597552    
377.21262987    388.663647718    389.235731783    386.737881558    370.091715701    
367.168677648    372.467508518    365.653849817    357.668870296    373.819280492    
371.588460211    376.018124696    376.595254948    372.702589212    372.620691682    
363.872644034    372.615025768    365.21922555    355.213706259    353.119808042    
360.790606125    369.219670216    351.328303311    334.13441915    356.978226532    
345.299830089    349.570609633    356.858257273    371.230796036    367.396524266    
350.737574913    365.267113501    359.337566524    359.054511526    366.987267033    
360.235644812    348.389250672    328.377894078    334.864995041    392.605186813    
375.055031925    374.427432838    372.393975146    373.898036412    376.583164747    
381.852707011    380.17447255    382.341709228    374.743166366    381.217408992    
384.254938129    379.073496786    380.535510809    385.37223608    381.059007485    
385.016594812    383.423542988    381.619836673    380.151940162    381.50534458    
380.53862016    376.760070488    380.633544276    375.228870464    383.212937602    
375.927281415    372.687926441    370.84382193    378.031900463    371.402500244    
379.740305403    366.715311157    370.461544117    376.286525285    366.973406572    
363.1460797    379.759940631    375.529649299    373.784512593    372.69712263    
368.989369645    378.350168064    378.05480513    370.354724094    367.673584731    
363.638746231    342.054109041    356.48724579    361.212603839    363.527028281    
359.567401785    369.91114003    367.96456326    370.619608526    361.218324872    
375.108225783    361.925112207    361.965968404    361.680103056    360.452173094    
373.752428335    374.194419706    376.941973366    372.027987133    374.822490339    
377.13341862    349.250656357    356.058068947    351.88387722    354.177923163    
356.847435469    355.727538979    369.221938008    368.058741246    370.991643244    
370.811767972    373.073800627    371.045918666    367.235229633    369.523261291    
367.69773987    371.170798133    373.984364744    372.505164459    371.972834389    
361.402641385    381.498126452    367.074665031    351.242829784    369.113018163    
369.401980574    358.600724032    346.833727967    345.27702333    373.508667012    
373.238035125    375.812739132    374.560326284    354.570586116    356.903738845    
355.287494922    373.685699998    354.840991968    372.045585255    364.230236855    
372.958131853    374.651547477    
-0.284170310816    -0.242987872253    -0.225233824099    -0.298614043029    -0.286869312062    
-0.0289364740412    -0.0141304222985    -0.0232583825836    0.0236125224465    0.0592403619377    
0.0583993066201    0.0860216816777    0.0316314226923    -0.0543603558605    -0.0955325453699    
-0.129713371148    -0.104205825236    -0.121042718079    -0.158984105361    -0.0808797651776    
-0.117723606997    -0.0841284820429    -0.150789431354    -0.231808879206    -0.271123400682    
-0.279558970923    -0.202898244056    0.00168371310778    -0.037864586151    0.0623599047382    
0.0845735767426    0.0749208993872    0.109118604247    0.143333037458    0.116922373505    
-0.242280520599    -0.207690743854    -0.178042225013    -0.202090350928    -0.052161659527    
-0.0560734906902    -0.0915337322812    -0.0227600609694    -0.0823747716158    -0.0213501973137    
0.00732718099    0.0522072379156    0.0844836773333    0.0547059141487    -0.0288457013243    
-0.0281491987525    -0.0288068971438    -0.0534982975253    0.00996089910217    0.0789463898244    
0.114842234175    0.120609047076    0.148906270486    0.103136375002    -0.121246220176    
-0.111914046224    -0.0714047589591    0.051489631222    0.00491532108261    0.0398958114016    
0.00851202353653    0.16691331544    0.187905012768    0.12183951829    0.165571221217    
0.153736883765    0.0793604088285    0.0748188797325    0.049126070177    0.0858309652473    
-0.271179937659    -0.2922798758    -0.228366154828    -0.256976684018    -0.272571034249    
-0.23426103503    -0.242992072269    -0.154622730265    -0.15150722427    -0.107061882098    
-0.188555565063    -0.145530502664    -0.0519627676619    -0.107343490165    -0.059542991329    
-0.164681376725    -0.138942134337    -0.0903952651585    -0.082053712181    -0.0423296214308    
-0.160478053124    -0.118888513013    -0.104313639215    -0.171656377291    -0.20610826212    
-0.00240026935405    0.00908479050174    0.0495097156873    -0.0326378884341    -0.0620890675558    
-0.0543860164694    0.0440358949228    0.0419028749977    0.0889944730759    0.0692978335843    
0.0803299253481    0.131845458428    0.0502944453073    0.0597622428836    0.00454696181803    
0.0751673767375    -0.00285653981413    0.00928374846086    -0.0226868556776    -0.0276389117625    
0.0537125331011    0.148027666363    0.172494976966    0.171556553712    0.196108821458    
0.177670771362    -0.436215461049    -0.430393212237    -0.392274106461    -0.396176351217    
0.0118229268505    0.0641710757247    0.0154202623984    0.0574728402326    0.000821067162715    
-0.047867425466    -0.0994451244253    -0.0238475026666    -0.0831369979688    -0.135594030062    
-0.195101597486    -0.158493556911    -0.243670862602    -0.240646037524    -0.26646309001    
-0.215986676064    -0.250683778354    -0.136264866942    -0.0579941726404    -0.13180779067    
-0.182852094949    0.091892114366    0.116907639007    0.0916043043284    0.0677260320497    
0.0666322970531    -0.14396333174    -0.0890133972352    -0.00727067275227    -0.0103772012201    
-0.0290432574712    0.0197728595683    0.0850163491526    0.0219993189817    -0.0153398740416    
-0.0435905336862    -0.0786887708681    0.00345532769263    0.0252957401066    -0.0126470371215    
-0.158902552325    -0.164980817996    -0.217830829727    -0.255035065773    -0.237399544648    
-0.257776472873    -0.191029544557    -0.232282830206    -0.267886125625    -0.271906209462    
-0.185897075832    -0.247850416317    -0.000700405749613    -0.0529247856095    -0.0506650983392    
0.0310310554563    -0.0466508339097    -0.0351887264341    -0.015865828558    0.0248703075943    
0.00911486651328    -0.0453176437227    0.0658773122334    0.0148440728598    0.000946825491526    
-0.0249052094053    -0.00158654959473    0.0323917759343    -0.00314059804323    0.0616806401089    
0.0272126775887    -0.0285123171417    -0.0613288946334    -0.0126179425568    -0.111217703556    
-0.168756982207    -0.174306208497    -0.145011159272    -0.21660718197    -0.145907448599    
-0.107597089338    -0.0992330513343    -0.0921997708303    -0.0951880990209    -0.142242731946    
-0.106825284359    -0.0827220242917    -0.100695580605    -0.081066209719    -0.065573687818    
-0.0659865341059    -0.0344261513709    -0.0289607355083    -0.027676575402    -0.0378256793493    
-0.0746958052431    -0.0496519949549    -0.242321915001    -0.218979915246    -0.199300939633    
-0.346977285561    -0.373741327662    -0.376951549113    -0.352899302113    -0.314635087602    
-0.320612729299    -0.285692560741    -0.274408409665    -0.232698702429    -0.213360489421    
-0.176769836179    -0.239021796063    -0.269888038772    -0.274840449517    -0.258420847575    
-0.254405512965    -0.263493545848    -0.21736410332    -0.283494999719    -0.225968138187    
-0.178425096688    -0.226684247237    -0.200985593192    -0.242734588361    -0.290975068905    
-0.216928966199    -0.237303658053    -0.320105971399    -0.316644256833    -0.280631633552    
-0.313109033668    -0.307859975229    -0.287176782224    -0.223466319923    -0.223475666799    
-0.260231944347    -0.301611654213    -0.272571332708    -0.250796465963    -0.140553984573    
-0.0984686732615    -0.101401364189    -0.149272438967    -0.169936436258    -0.125906915098    
0.0466021107394    0.0234980762156    -0.00505002569876    0.0527497207504    -0.292508190445    
-0.293383582332    -0.264923187985    -0.27698912647    -0.26520121218    -0.173944733995    
-0.219428002775    -0.268667174178    -0.290065816731    -0.228147220789    -0.286397816657    
-0.304235664306    -0.267212576268    -0.257361930362    -0.240148460971    -0.24246864313    
-0.258677883257    -0.249402975167    -0.219678767146    -0.226370317554    -0.290339066116    
-0.243711002679    -0.274834350532    0.0282575549893    0.0738301583393    0.033589398346    
-0.230885260247    -0.199999853484    -0.209136625165    -0.169634728389    -0.206454788654    
-0.14296776159    -0.181082226903    -0.118966973445    -0.107677494731    -0.138232546253    
-0.0757920927894    -0.2084391853    -0.190963123721    -0.226835213704    -0.259649036837    
-0.155504009673    -0.284780541768    -0.261838112095    -0.220387811214    -0.0989737883743    
-0.0954874487457    -0.14388730754    -0.0924889400369    -0.0539290527773    -0.0908251857819    
-0.0863381527681    -0.174800494304    -0.147294058082    -0.148262167736    -0.171655897885    
-0.0932283045718    -0.117250057438    -0.0891531619725    -0.0512372704861    -0.0183063518146    
-0.0370423944071    -0.0696289770056    -0.0159223266195    0.0320840677532    -0.0325287510206    
0.0172186736935    -0.0365521864651    -0.0515323339039    -0.0257349278655    -0.0487063167273    
0.0182910177668    0.00424823847977    -0.023899112888    -0.026622820035    -0.0552782285062    
-0.0455328217773    0.00910525751425    0.0534663132138    0.0151325583421    -0.324451432378    
-0.210311468941    -0.199716487612    -0.181747879782    -0.194277654215    -0.222543463364    
-0.233839791646    -0.207735454944    -0.269431197032    -0.1942035574    -0.245329962256    
-0.293566926718    -0.20089649699    -0.19246603818    -0.19985938422    -0.198950969094    
-0.206959820282    -0.157637309479    -0.158371241018    -0.161782100181    -0.141304656926    
-0.150753159493    -0.135591050103    -0.136828633607    -0.181355215649    -0.246526547594    
-0.194768556541    -0.0540272601888    -0.0597732052894    -0.0795321512833    -0.0680800942577    
-0.0926880231497    -0.0395948915011    -0.0730635739148    -0.0875562759822    -0.0136519443042    
-0.00365933429386    -0.0723799506858    -0.116963044885    -0.126967434708    -0.136988469473    
-0.0957490586285    -0.115197841341    -0.138881114235    -0.170594201614    -0.158385887844    
-0.133052376182    0.051430287    0.00940895194813    -0.026435446108    -0.0487082952839    
-0.041665213774    -0.0760183579991    -0.0645747672443    -0.0823778927914    -0.0318025721697    
-0.122180157729    -0.0619734710572    -0.0577032801267    -0.0464847955537    -0.0333014933951    
-0.0797481061141    -0.109040221062    -0.113119803727    -0.11732301752    -0.146667047408    
-0.144701982301    -0.0402926033968    -0.0779946172606    -0.0513857713247    -0.0558452794224    
-0.0854146561366    -0.0839318595379    -0.113745744682    -0.0967209143018    -0.137481524181    
-0.146893039734    -0.167613082905    -0.127818862369    -0.110224070776    -0.154810916154    
-0.126077945136    -0.174862878087    -0.18775207891    -0.183825941642    -0.155192542397    
-0.103522502715    -0.214950875005    -0.0882206684527    -0.0260564973475    -0.137465985195    
-0.133327780458    -0.0831958688077    -0.0270856535239    0.00684392906723    -0.156262440155    
-0.121757292079    -0.171861220406    -0.144202011608    -0.00540570765228    -0.0253157913404    
0.00812950291863    -0.0687216564653    0.00222905723026    -0.0633036930879    -0.00781754815845    
-0.0522465827328    -0.0578095093319    
4     3     2     5     
2     3     4     1     
4     2     1     67     
5     2     4     6     
6     2     4     52     
7     8     9     28     
9     8     7     10     
10     9     8     92     
10     8     7     12     
10     8     11     65     
11     8     10     12     
12     11     8     29     
7     12     8     47     
18     19     20     41     
20     19     18     21     
21     20     19     1     
21     19     18     53     
20     19     1     22     
21     1     19     67     
20     22     9     92     
9     22     20     1     
19     22     20     92     
1     22     19     67     
23     24     25     27     
25     24     23     26     
26     25     24     52     
27     24     25     54     
8     28     7     47     
9     28     8     92     
12     29     8     47     
11     8     29     65     
30     31     32     55     
32     31     30     33     
33     32     31     57     
33     31     30     49     
4     37     25     52     
25     37     4     21     
21     25     37     53     
21     37     4     67     
38     39     40     18     
40     39     38     17     
17     40     39     54     
17     39     38     56     
18     39     40     53     
38     39     18     55     
10     41     30     18     
30     41     10     11     
11     30     41     49     
11     41     10     65     
18     41     20     10     
10     41     20     92     
19     41     18     55     
20     41     19     92     
30     18     41     55     
32     42     15     56     
15     42     32     43     
43     15     42     44     
43     42     32     57     
44     15     42     64     
22     45     28     74     
28     45     22     9     
9     22     28     92     
8     47     29     76     
7     46     47     48     
47     46     7     12     
28     47     8     76     
11     49     50     33     
50     49     11     51     
11     49     33     30     
33     31     36     57     
36     31     33     49     
30     49     31     41     
41     49     31     87     
30     41     31     55     
11     49     41     65     
4     52     25     6     
6     52     25     26     
25     52     37     69     
4     37     52     2     
37     52     2     79     
4     37     2     67     
25     24     52     69     
25     53     21     40     
40     25     53     54     
40     53     21     18     
37     53     25     69     
21     53     37     19     
39     53     18     55     
40     53     39     54     
18     53     19     55     
19     37     21     67     
19     53     37     90     
34     54     39     68     
39     54     34     17     
17     34     39     56     
40     54     27     25     
27     54     40     17     
39     54     53     68     
25     53     54     69     
25     54     24     69     
39     55     38     56     
18     38     55     30     
38     55     30     32     
19     41     55     66     
19     55     53     66     
53     55     39     66     
31     55     41     87     
38     55     32     56     
32     55     31     42     
32     55     42     56     
31     42     55     123     
31     32     42     57     
32     38     56     15     
42     56     55     123     
38     56     15     17     
15     56     42     64     
55     56     39     84     
17     56     15     16     
34     56     17     16     
39     56     34     84     
15     16     56     64     
31     57     42     115     
32     57     33     35     
36     57     31     115     
33     57     36     35     
32     57     35     43     
61     58     60     62     
60     58     61     59     
61     59     58     161     
61     58     62     100     
10     65     41     92     
41     65     49     87     
10     8     65     92     
29     65     8     76     
41     55     66     87     
41     66     19     77     
19     66     53     90     
39     66     55     84     
53     66     39     68     
19     67     22     90     
21     1     67     4     
19     37     67     90     
45     67     13     109     
13     67     45     2     
2     13     67     109     
2     67     45     1     
2     67     37     79     
53     68     54     69     
34     68     39     84     