Title = " tecplot file for 2D Cavity problem " 
variables = "x", "y", "z", "velX", "cellCentroidY" 
Zone T = "nmesh0" N = 154 E = 467 DATAPACKING = BLOCK, VARLOCATION = ([4-5]=CELLCENTERED), ZONETYPE=FETETRAHEDRON
0.5    0.5    0.39956721182    0.5    0.2    
0.23892791459    0.23153735228    0.3    0.5    0.4115682451    
0.051624035259    0.1    0.048148862371    0.0    0.13209314197    
0.13736922805    0.41578080408    0.5    0.5    0.5    
0.5    0.41276644951    0.5    0.5    0.41575962317    
0.5    0.5    0.5    0.41643862762    0.43227991151    
0.5    0.5    0.42913825798    0.5    0.5    
0.42836019649    0.4    -0.032990049868    0.5    0.41981491446    
0.5    0.5    0.5    0.5    0.5    
0.41165295243    0.5    0.42168983817    0.40504917502    0.5    
0.33957649135    0.5    0.41527977586    0.5    0.5    
0.5    0.41874924302    0.5    0.5    0.40574300289    
0.32618201123    0.41569638252    0.5    0.41065472364    0.5    
0.32383922021    0.40414276719    0.5    0.05350411837    0.024046033621    
0.045422997231    0.28412730101    0.33738765121    0.32846847876    0.22844861004    
0.29309883714    0.1615903074    0.18354015052    0.1743232997    0.11026169429    
0.11269637197    0.23988850923    0.12572585046    0.13884566706    0.033159035033    
0.21497009695    0.2551958203    0.30577623844    0.33595085147    0.21983735443    
0.21220782399    -0.013743156412    -0.016939789057    0.02532113716    0.090107783675    
0.098318660603    0.10177732259    0.26118835807    0.41627711058    0.5    
0.42226392031    0.41622126102    0.4201413095    0.40772935748    0.39354494214    
0.40442427993    0.42564427853    0.23029404879    0.022982079536    0.34128198028    
0.34028389127    -0.014558871277    0.10747696459    0.17720426619    0.33006593585    
0.39897340536    0.32872989774    0.32177346945    0.4085174799    0.5    
0.42426067591    0.040414143354    0.16359171271    0.27145576477    0.18004000187    
0.33005258441    0.29873308539    0.27065211535    0.32073333859    0.32815802097    
0.3027382791    0.041503503919    0.28731971979    -0.04494119063    0.12168388069    
0.19700033963    0.19848676026    0.23640879989    0.33997377753    0.36965695024    
0.30533906817    0.22903570533    0.20252458751    0.13790485263    0.31950846314    
0.034904532135    0.2703794539    0.089858144522    -0.021785223857    0.25666350126    
0.33016222715    0.31448689103    0.247710675    0.43577221036    
0.39969751098    0.5    0.5    0.5    0.5    
0.5    0.41131431    0.5    0.41188366054    0.5    
0.5    0.5    0.43198898891    0.5    0.41540583426    
0.5    0.33947748232    0.34029280491    0.3    0.4    
0.23878142205    0.23802795747    0.2    0.13704872465    0.13647533199    
0.1    -0.033454306713    0.0    -0.034165135222    0.05080410852    
0.051328268973    -0.1    0.42790726717    0.5    0.42838880419    
0.5    0.5    0.5    -0.004451597045    0.024051796645    
-0.083182727769    0.0074893949164    0.13091126552    0.069117591781    0.32892737464    
0.35470357537    0.32329967478    0.38945969939    0.02353441529    0.052729285155    
0.051370315306    0.15569507495    0.18050545454    0.14815816148    0.23766310229    
0.056480263476    -0.051343418658    -0.066395926384    -0.16351815207    0.11606233567    
0.28217272988    0.28777328134    0.28424562361    0.18327124417    0.17398359979    
0.17219533633    0.10724130273    0.10954857444    0.5    0.40536576509    
0.33852508245    0.5    0.4055327177    0.5    0.5    
0.41416463256    0.32314076394    0.41706010699    0.5    0.5    
0.40081068873    0.10542630627    0.074683457613    0.13552636399    0.14316341544    
0.047655455768    0.32669885795    0.33583059907    0.39862014685    0.22402612177    
0.29128858447    0.23973024376    0.17749716341    0.080155737698    0.17115314305    
0.23476967469    0.29881185293    0.16721591353    0.26167833805    0.229218125    
0.31865110993    0.41635105014    0.10479418933    0.037101287395    0.098883368075    
-0.080692149699    0.42559543252    0.42262995243    0.42029249668    0.41375112534    
0.5    0.30273240805    0.38607373834    0.20481482148    0.23920804262    
0.21166716516    0.11139494926    0.11394380033    0.013350881636    -0.0040942735631    
0.015413438901    0.23833499849    0.30417972803    0.318215698    0.12659868598    
0.16664245725    0.22263081372    -0.032839149237    0.03692343086    0.025269117206    
0.13677279651    0.32977220416    0.051976907998    0.23928229511    0.22956226766    
0.41255375743    0.2484177351    0.22946728766    0.29424312711    0.18749162555    
0.29553985596    0.062724344432    0.11355000734    0.15976892412    0.20585776865    
0.14440822601    0.16567063332    0.25087565184    0.2582000196    0.12977704406    
0.095714308321    0.23786218464    0.16071335971    0.15739028156    
-0.33866664818    -0.4    -0.33849824765    -0.3    -0.5    
-0.41456064362    -0.5    -0.5    -0.23538588605    -0.23502995202    
-0.43246794108    -0.5    -0.5    -0.5    -0.5    
-0.41665129901    -0.5    -0.41757449073    -0.5    -0.5    
-0.41433816876    -0.5    -0.5    -0.41609585065    -0.5    
-0.5    -0.41621550818    -0.5    -0.5    -0.5    
-0.43188041874    -0.5    -0.5    -0.5    -0.430184567    
-0.43012969401    -0.5    -0.41677308049    -0.054975019742    -0.012617296539    
-0.019241548604    0.046792553739    0.050671573191    -0.029669427208    -0.26209446696    
-0.22357727587    -0.17325149594    -0.39547523856    -0.39541178942    -0.33813941609    
-0.5    -0.15709710907    -0.11217790842    -0.06347358832    -0.11596301325    
-0.13308059917    -0.069024145603    -0.1328558622    -0.07452854626    -0.014157147147    
-0.5    -0.38759097457    -0.33086023526    -0.38553187251    -0.32616159469    
-0.5    -0.17599338293    -0.23780244737    -0.33962245788    -0.39628782868    
-0.5    -0.3307702295    -0.31030526757    -0.2616473045    -0.2292807784    
-0.22107885778    -0.5    -0.38605517149    -0.32695359205    -0.24055238104    
-0.30237615108    -0.5    -0.42226782441    -0.5    -0.5    
-0.40872132778    -0.5    -0.40458709002    -0.5    -0.5    
-0.41133615375    -0.5    -0.4123454988    -0.40952453017    -0.41247218847    
-0.5    -0.40432164073    -0.40178945661    -0.17723600566    -0.22976599836    
-0.30431655049    -0.161204651    -0.41993972659    -0.10843267292    -0.29801934958    
-0.1657396853    -0.28936305642    -0.29811424017    -0.3056512773    -0.41521838307    
-0.41754678867    -0.40931525826    -0.41986095905    -0.41892081499    -0.40299513936    
-0.27692452073    -0.43074804544    -0.094377815723    -0.20341610909    -0.23363482805    
-0.30833655596    -0.38140290976    -0.31372946501    -0.27856189013    -0.34880107641    
-0.33120939136    -0.15389552712    -0.10657566041    -0.15957440436    -0.050448991358    
0.0090291341767    -0.33499318361    -0.3161945343    -0.35348820686    -0.36035710573    
-0.2097568959    -0.22581070662    -0.32144889235    -0.33216997981    -0.19581690431    
-0.20140074193    -0.085743904114    -0.17525468767    -0.25212776661    -0.059111025184    
-0.33338880539    -0.24118041992    -0.26400905848    -0.25361275673    -0.31545513868    
-0.23053814471    -0.26838359237    -0.11375630647    -0.23034669459    
221.444793507    207.039429123    209.083039389    200.415009786    207.408126709    
209.315873386    270.863531137    201.48612624    131.091554389    231.829325232    
149.183678917    193.467822424    175.260444944    198.90254166    382.338083476    
391.104024279    370.475347188    391.043771104    397.075781933    393.545458502    
396.348647963    398.891875605    397.956325027    399.579232486    399.115960027    
397.768199638    399.270358629    397.869034132    399.66147681    398.492459451    
269.713333208    364.624734201    336.15119153    225.487800976    222.86659075    
219.77573472    272.146107245    241.251407283    171.76716111    391.621982331    
395.276937548    395.555578246    385.499611207    392.527393911    389.189773739    
348.496629432    353.371555441    319.755185752    314.979718753    366.657410095    
372.068417359    348.526445246    242.676574626    152.52005529    164.1716072    
224.645644941    358.971914584    363.819614286    325.732617928    395.967083636    
397.423127788    395.882090962    397.112448248    397.079655844    395.621058112    
389.47430792    387.086551084    373.696347222    383.185883214    382.656866712    
396.231157966    396.708853995    393.972596189    391.891058134    387.757689142    
388.119996113    382.668263273    382.108487461    376.706973763    381.384584835    
388.85231988    362.261958818    370.567080643    388.467090585    391.725194488    
384.167447833    341.184983698    350.095908795    387.058402011    391.1215523    
395.86812376    380.632533629    371.002576123    396.783265677    393.370269552    
377.808596127    389.205627996    392.083597856    395.531153158    385.240618386    
394.954523971    384.667207333    390.085611592    388.468946138    374.074323561    
379.170997133    75.6236637176    125.022241447    206.854867543    95.5556934035    
65.130355891    99.0504510472    88.2872794597    313.62481432    321.942495941    
271.783857898    300.00143032    197.840764498    101.143156521    209.395345698    
53.742067268    91.2425377929    80.90688714    56.2596844504    38.5192490415    
64.6220756572    106.334971423    133.724504597    109.681867264    374.646254019    
356.483857049    320.433784636    332.307357464    313.907904656    328.432832851    
372.546924883    346.520228985    358.944450829    358.006913622    370.62145159    
380.03771941    380.622789941    354.670428475    357.976846182    368.675620168    
286.498215152    235.738170334    252.662392735    296.709114301    389.163375249    
382.98879204    362.886644356    373.94380398    371.159457222    359.263120988    
359.340117367    376.255902684    383.619039098    354.698474633    378.855832059    
375.512444167    360.072799935    368.792230549    340.487093109    350.557956548    
381.576618538    388.309585798    385.448130925    379.417756705    386.134054215    
386.255210253    377.835342997    369.456358804    377.150052983    362.090290342    
341.373260239    364.26382019    377.096932829    315.979890995    377.770413958    
295.806419504    381.977090356    336.600716603    372.734059384    357.499353913    
310.361237431    315.0884091    390.063665887    397.382423264    398.669741032    
394.668379546    392.127444885    398.769770254    397.964638523    396.294142204    
391.544683689    386.623824846    390.669047304    361.214940456    383.025293168    
390.411869799    374.690892725    360.546164558    393.851239343    370.05196185    
394.808131857    377.163637583    391.390670602    388.318810105    386.815164564    
393.129729156    391.904368467    378.494725577    381.320498963    384.369816489    
390.437916687    388.317044494    376.907770803    189.325369302    259.547517933    
166.822631876    276.134193345    257.504306181    264.808093257    196.255782359    
355.856028456    321.012299546    259.260843983    185.518987168    219.189092384    
122.309206225    208.933364709    145.878861391    107.357270486    105.674609337    
58.0693599394    85.8364577708    203.399743842    92.2039883991    177.509006119    
223.9758058    239.104721942    203.67632217    35.9666871825    123.749023851    
177.279967386    61.1010779433    23.8930499944    80.0986804152    53.8142754002    
42.5523267099    110.283004874    150.728555837    127.918099832    115.125628527    
168.240530969    242.574471397    194.555444728    269.329418385    218.493237581    
314.406423996    292.366922129    95.3163583164    136.390713317    57.7058546631    
53.2364602341    112.694061529    78.7831226873    319.672075822    352.361816856    
358.516151619    374.334744648    344.200201953    306.874380814    274.893782621    
299.992477214    198.492132003    189.355007852    101.80893173    338.531445722    
294.712432954    359.449755402    250.668000189    310.331010574    248.712205936    
268.478256516    341.0822273    338.283749698    362.431271655    363.245925811    
358.464946461    382.813724502    377.887686579    391.217389013    375.054238831    
366.53668074    362.739346996    378.348778168    391.282607641    337.316894559    
352.941690916    347.308848204    383.303055618    319.738545911    320.307446337    
386.461513458    339.634623255    388.828975147    376.969915405    379.764552762    
355.278975309    338.276377982    366.994428497    379.819840457    385.547421256    
354.608506958    343.219410889    383.669108733    326.390972363    366.016986505    
380.186699318    396.722715245    395.725378994    364.002553626    368.689522661    
367.959400643    359.827749163    341.864665965    360.390152446    348.930796546    
377.261889999    394.67114111    395.501139539    371.139524678    391.824470196    
382.143512321    373.293959392    386.801191478    379.76613756    396.435196087    
326.148335267    293.465684382    348.53162496    337.331820523    323.565726427    
160.28720233    229.989040399    212.220994876    279.129216546    264.290730335    
186.29262489    249.140147764    252.350293594    162.056933647    340.5947747    
349.565135377    340.561478218    360.012614773    342.834321716    361.753957127    
374.187707321    351.088657687    357.501995725    350.764826133    358.53149169    
352.90466583    367.131766917    374.507642151    364.731072281    352.936607601    
373.344782846    347.374871142    347.233660222    337.109413372    335.963406811    
283.084640532    286.092611242    241.636561807    371.298967039    362.626344234    
366.525351138    266.978027534    318.81359323    263.898505613    271.594245894    
287.830555708    256.085393298    315.668949744    290.782441876    321.931967296    
332.424325312    327.836126253    31.1990853131    277.107353758    259.441988645    
278.975228071    331.08626164    343.233647647    315.90515009    287.429323902    
341.530572723    315.415122789    265.412623407    294.966227432    292.453230019    
294.082838069    274.312106099    326.088824376    345.860899778    334.007170598    
360.243232981    327.68483443    326.618672051    333.656095929    311.898420868    
356.071616227    322.674133492    337.959033963    337.524944689    326.204557922    
325.175618667    319.242313423    306.556779718    282.54596793    317.211803664    
312.546679557    298.190716382    293.329904408    289.965371628    304.014466236    
298.633447386    320.954032617    297.640679589    263.160871229    281.57565151    
331.164134894    322.834825287    344.510475311    369.807505704    355.94903354    
339.178464423    326.860330442    331.291621727    347.696154019    327.874438413    
316.374260328    321.838124304    331.249355312    358.039418376    363.058932611    
336.951284537    355.488725414    368.219593936    330.842446724    335.750789552    
292.33069335    263.7329165    275.556373141    296.256030564    295.779397035    
266.018207391    322.795424131    352.319564247    289.540003487    325.23975013    
393.109644226    394.110253225    
0.448632252615    0.474050824903    0.457172163521    0.455527397225    0.477234560095    
0.454905719822    0.461456768754    0.483035004998    0.482489743842    0.434179105748    
0.477525264534    0.478431627771    0.450191744344    0.457100625841    0.316514436231    
0.34559394896    0.367522834845    0.266404513568    0.244897955561    0.21459054991    
0.164530164325    0.144212502783    0.119594969005    -0.0429172094938    -0.00494111626456    
0.00134949115089    0.0172423548117    0.0225361431611    0.05044010346    0.0770948885002    
0.464097982003    0.440796269983    0.411074518526    0.458077461885    0.481809010563    
0.482019313742    0.436527326594    0.453231177553    0.457752806524    -0.0289364740412    
-0.0141304222985    0.0236125224465    0.0860216816777    0.0583993066201    0.0316314226923    
0.316569049718    0.355069173073    0.379969804503    0.428967839142    0.38942729242    
0.388360202087    0.360835542537    0.433636223079    0.451586586708    0.469867416976    
0.429108549065    0.388045719904    0.338780800203    0.392505130316    0.0136405905374    
0.0231984660943    0.0579500062821    0.0570227116912    0.022502171309    0.0572004159328    
0.134157692058    0.180643088189    0.209313766061    0.123917085472    0.106148727487    
-0.052031980783    -0.0913442998473    -0.0921595027197    -0.020690012127    0.00168371310778    
0.116765352621    0.0916876953252    0.0623599047382    0.261970092157    0.287241585475    
0.290733780406    0.311387477479    0.30829642597    0.288092475849    0.291234675551    
0.247769754074    0.33806970729    0.334667949957    0.236625807077    0.219644031633    
0.183721182589    0.214506272896    0.241141137088    0.189425550169    0.15057927179    
0.236994792135    0.15150388852    0.182976820223    0.189004665372    0.207854116528    
0.141825954081    0.132067094892    0.106330183955    0.0713673794725    0.150872655386    
0.0960698527932    0.475197299129    0.448341809842    0.431264972564    0.455521503037    
0.475387401168    0.458347432601    0.455305335737    0.361664450925    0.391660917278    
0.435906208114    0.384655891011    0.431178303277    0.478661923458    0.434331343379    
0.479273099727    0.453773383901    0.460369387655    0.474045819588    0.474833015098    
0.452556660749    0.446441495326    0.426675051607    0.434776785033    0.337066689475    
0.368341521645    0.389371642392    0.341718222858    0.328503393625    0.367339946663    
0.338933227008    0.369844366359    0.287151705882    0.308769919158    0.259176402344    
0.279332633089    0.290412763701    0.286497670925    0.338074050628    0.261787449103    
0.36515895073    0.36627101539    0.395584259338    0.353048262149    0.171332952788    
0.197607998268    0.221802568998    0.183430556838    0.142827295153    0.207161896422    
0.117478156477    0.117390756952    0.130948756381    0.143240704945    0.18679519838    
0.146230912867    0.265195340313    0.299045014824    0.336290166919    0.293147333117    
0.17379424611    0.16753759838    0.13912737589    0.20120895301    0.262701090406    
0.22138869064    0.201536945769    0.189648655815    0.28499512588    0.283836977522    
0.314278423744    0.273237546386    0.336719127937    0.324063338779    0.334456952691    
0.382393702199    0.288522811463    0.368521841833    0.259574679127    0.256483192072    
0.290119139814    0.358053880287    0.135090580722    0.0855919796451    0.0980497710748    
0.100549852914    0.0714665284756    0.0983285428994    0.0861812273753    0.11579886596    
0.108242161523    0.139032385983    0.0705979001014    0.109793176926    0.053686473555    
0.0775350749294    0.118818349128    0.111689621273    0.0398958114016    0.051489631222    
0.00491532108261    0.00851202353653    0.00803324162418    -0.0395464978815    0.134923144716    
0.108751971755    0.0709075800091    0.166269720162    0.124120445987    0.0848648094465    
0.0490234705281    -0.0239305051722    -0.0317506768988    0.429810716842    0.383894914765    
0.428618370843    0.353634359588    0.375902117883    0.345264300245    0.399306761047    
0.391142294809    0.434955712026    0.402818422073    0.404471412594    0.371746430144    
0.437312212692    0.438331282575    0.437456804362    0.457110983072    0.436169130779    
0.481242320125    0.482054212194    0.4601890577    0.433993078746    0.385064093388    
0.357779244519    0.342858296711    0.398060785987    0.480056658177    0.435628045669    
0.389348381446    0.45952997151    0.481396222928    0.437679025828    0.459650230156    
0.480437490132    0.456493095117    0.437839450153    0.424186723823    0.431967950111    
0.388607614042    0.385358189299    0.394544080761    0.357712562768    0.36982269438    
0.432219291562    0.454291279993    0.477714484387    0.477650590046    0.477745482459    
0.47802515174    0.477068732675    0.477561237995    0.435390768357    0.394894064464    
0.253152368966    0.278975118707    0.26846366371    0.336748535664    0.334393954413    
0.356110431558    0.37545458329    0.380518942284    0.469051339865    0.391883013313    
0.390194642981    0.364522807753    0.354611056971    0.32479951051    0.347938224426    
0.320483160408    0.279606672469    0.223752530961    0.222310226296    0.231221068368    
0.143625741895    0.130464737394    0.111652781353    0.166557989914    0.129823298104    
0.114658640411    0.135322999658    0.106932124006    0.199691898103    0.226350131757    
0.228730878544    0.235973120041    0.247457072334    0.257495612981    0.27290601019    
0.229138208978    0.232989526109    0.232121555582    0.173788651558    0.176939447235    
0.250474081365    0.289514025771    0.164933392383    0.159731679081    0.225123469381    
0.24308034115    0.276207173613    0.193429302358    0.259880542021    0.216394459358    
0.0716040424451    0.117564487415    0.109866993868    0.171200250333    0.174284493209    
0.111207722389    0.0739278668452    0.153965927067    0.0743842855445    0.146748104424    
0.00048856100985    0.0449571085324    -0.000492027277973    0.0488169176786    0.0353293146678    
0.0822749283708    0.0778825724203    0.0601402772442    0.116316360612    0.0440811755619    
0.234526988696    0.29304076877    0.239708803816    0.182159178263    0.239477670334    
0.383744486652    0.335079983517    0.354539197629    0.294448028234    0.286540738456    
0.362764529212    0.34048440415    0.344010299115    0.390359941751    0.181377193462    
0.128619220865    0.182256996905    0.116635529445    0.201384819432    0.143125744806    
0.138851750538    0.220548439829    0.14406068702    0.215663018283    0.0534296733659    
0.0892328526277    0.0628449150449    -0.0129597048533    0.0164712135482    0.0238897530152    
-0.00727067275227    0.0591586748612    0.09771238605    0.0846918057578    0.142802882396    
0.278048294863    0.274945576434    0.330384085025    0.105818854285    0.103357532196    
0.113853949703    0.267636479186    0.199149142492    0.291561168439    0.263386822188    
0.281562978396    0.279568420347    0.239454839625    0.263123361133    0.194937699364    
0.166359778507    0.197158977549    0.477840566171    0.258504645629    0.275520227728    
0.251909241357    0.23199902679    0.174408897151    0.27351930045    0.293531762445    
0.164542702701    0.187101374107    0.257576496742    0.216416308969    0.269755229092    
0.30088309966    0.303509420003    0.265460956805    0.126120198372    0.17483805603    
0.158532115378    0.213817223184    0.180440489332    0.152261840124    0.229113763871    
0.197123742286    0.118273956791    0.0820561430202    0.0920572150204    0.111136124898    
0.163285575293    0.16493934288    0.199657227794    0.222056001768    0.154202582484    
0.175999922389    0.194679063018    0.214678949374    0.218866160913    0.171995634964    
0.174191066124    0.171863646235    0.220714174869    0.268603801655    0.222928262913    
0.17456039225    0.199248136485    0.138851353529    0.0854448778173    0.110731058994    
0.154651997918    0.16765836333    0.188349461282    0.163402965639    0.146638482239    
0.203481158529    0.159955062672    0.118922658492    0.136506930265    0.140500208755    
0.200243591104    0.161170301431    0.114559910721    0.225736911415    0.227477654851    
0.219866979964    0.274033287475    0.250016399423    0.25342829382    0.199504635173    
0.303322379743    0.231659969539    0.205967047011    0.287644986189    0.133499089444    
0.164004445824    0.168578745512    
1     2     3     48     
3     2     1     4     
1     3     4     107     
5     6     7     78     
7     6     5     8     
8     7     6     110     
11     12     13     15     
13     12     11     14     
11     13     14     38     
11     15     13     113     
11     12     15     16     
15     16     12     5     
11     16     15     113     
5     15     16     78     
17     18     19     62     
19     18     17     20     
17     20     18     48     
21     22     19     62     
19     22     21     23     
21     23     22     64     
24     25     23     64     
23     25     24     26     
24     26     25     103     
27     28     29     32     
29     28     27     30     
30     27     29     49     
30     28     27     31     
30     31     27     49     
30     28     31     26     
31     30     26     103     
33     34     35     36     
35     34     33     20     
20     33     35     48     
36     33     37     110     
37     33     36     34     
35     36     34     2     
35     33     36     48     
35     36     2     48     
13     38     11     70     
39     40     41     57     
41     40     39     42     
42     40     39     44     
44     43     40     60     
40     43     44     42     
39     44     40     104     
45     46     47     99     
47     46     45     9     
9     46     45     107     
1     48     35     2     
35     48     1     18     
18     35     48     20     
18     48     1     101     
36     48     33     110     
3     48     36     110     
36     48     3     2     
1     48     3     107     
20     33     48     17     
17     48     18     62     
33     48     17     110     
27     49     50     121     
50     49     27     31     
31     50     49     103     
30     31     49     103     
30     49     29     51     
51     30     49     103     
52     53     54     56     
54     53     52     55     
55     53     52     99     
56     52     53     67     
56     53     54     104     
41     57     58     39     
58     57     41     59     
59     58     57     106     
58     39     57     104     
40     57     39     104     
43     60     44     54     
54     60     44     104     
44     60     40     104     
61     62     22     115     
22     62     61     17     
17     22     62     19     
17     62     61     88     
63     62     18     101     
18     62     63     21     
21     18     62     19     
21     62     63     64     
48     62     17     88     
18     62     48     101     
21     22     62     64     
21     64     63     65     
65     21     64     24     
65     64     63     116     
63     64     62     116     
24     21     64     23     
24     64     65     103     
62     64     22     115     
66     64     25     117     
25     64     66     22     
22     25     64     23     
22     64     66     115     
24     25     64     103     
52     67     68     154     
68     67     52     56     
56     68     67     119     
53     67     52     154     
56     67     53     104     
70     38     11     69     
11     70     69     113     
11     13     70     113     
72     73     3     110     
3     73     72     74     
74     3     73     107     
74     73     72     108     
77     78     7     91     
7     78     77     15     
15     7     78     5     
15     78     77     113     
16     78     15     113     
5     78     16     6     
7     78     6     110     
6     78     16     79     
79     78     16     81     
6     78     79     108     
79     69     81     16     
81     69     79     80     
79     81     80     136     
16     69     81     113     
16     81     78     113     
79     78     81     108     
87     88     89     61     
89     88     87     7     
7     89     88     110     
7     88     87     91     
62     88     48     139     
17     48     88     110     
61     88     89     17     
17     88     89     110     
61     88     62     115     
87     88     61     91     
90     91     61     115     
61     91     90     87     
87     91     90     77     
61     91     88     115     
77     87     91     7     
77     91     90     114     
88     91     7     78     
88     91     78     108     
7     88     78     110     
78     91     77     113     
85     95     96     84     
96     95     85     92     
92     96     95     122     
92     95     85     93     
93     95     85     94     
92     95     93     122     
94     95     83     146     
83     95     94     85     
85     83     95     84     
93     95     94     146     
96     84     95     114     
84     83     95     114     
96     97     77     114     
77     97     96     71     
71     77     97     113     
71     97     96     112     
90     98     82     114     
82     98     90     66     
66     82     98     117     
66     98     90     115     
55     99     100     47     
100     99     55     52     
52     100     99     154     
52     99     53     154     
47     99     100     45     
45     99     100     101     
45     46     99     101     
62     101     63     116     
18     63     101     1     
48     101     62     139     
63     101     1     45     
1     101     48     107     
63     101     45     100     
1     45     101     107     
63     101     100     116     
100     101     99     116     
46     99     101     152     
46     101     45     107     
64     103     25     117     
30     103     51     25     
25     30     103     26     
25     103     51     117     
51     103     49     117     
31     103     26     24     
31     103     24     50     
24     103     65     50     
50     103     65     105     
65     103     64     105     
49     103     50     105     
53     104     67     118     
56     67     104     119     
54     56     104     44     
54     104     53     60     
53     60     104     118     
56     104     44     39     
40     104     60     130     
39     56     104     58     
57     104     40     130     
58     56     104     119     
58     104     57     106     