Title = " tecplot file for 2D Cavity problem " 
variables = "x", "y", "z", "velX", "cellCentroidY" 
Zone T = "nmesh0" N = 154 E = 467 DATAPACKING = BLOCK, VARLOCATION = ([4-5]=CELLCENTERED), ZONETYPE=FETETRAHEDRON
0.5    0.5    0.39956721182    0.5    0.2    
0.23892791459    0.23153735228    0.3    0.5    0.4115682451    
0.051624035259    0.1    0.048148862371    0.0    0.13209314197    
0.13736922805    0.41578080408    0.5    0.5    0.5    
0.5    0.41276644951    0.5    0.5    0.41575962317    
0.5    0.5    0.5    0.41643862762    0.43227991151    
0.5    0.5    0.42913825798    0.5    0.5    
0.42836019649    0.4    -0.032990049868    0.5    0.41981491446    
0.5    0.5    0.5    0.5    0.5    
0.41165295243    0.5    0.42168983817    0.40504917502    0.5    
0.33957649135    0.5    0.41527977586    0.5    0.5    
0.5    0.41874924302    0.5    0.5    0.40574300289    
0.32618201123    0.41569638252    0.5    0.41065472364    0.5    
0.32383922021    0.40414276719    0.5    0.05350411837    0.024046033621    
0.045422997231    0.28412730101    0.33738765121    0.32846847876    0.22844861004    
0.29309883714    0.1615903074    0.18354015052    0.1743232997    0.11026169429    
0.11269637197    0.23988850923    0.12572585046    0.13884566706    0.033159035033    
0.21497009695    0.2551958203    0.30577623844    0.33595085147    0.21983735443    
0.21220782399    -0.013743156412    -0.016939789057    0.02532113716    0.090107783675    
0.098318660603    0.10177732259    0.26118835807    0.41627711058    0.5    
0.42226392031    0.41622126102    0.4201413095    0.40772935748    0.39354494214    
0.40442427993    0.42564427853    0.23029404879    0.022982079536    0.34128198028    
0.34028389127    -0.014558871277    0.10747696459    0.17720426619    0.33006593585    
0.39897340536    0.32872989774    0.32177346945    0.4085174799    0.5    
0.42426067591    0.040414143354    0.16359171271    0.27145576477    0.18004000187    
0.33005258441    0.29873308539    0.27065211535    0.32073333859    0.32815802097    
0.3027382791    0.041503503919    0.28731971979    -0.04494119063    0.12168388069    
0.19700033963    0.19848676026    0.23640879989    0.33997377753    0.36965695024    
0.30533906817    0.22903570533    0.20252458751    0.13790485263    0.31950846314    
0.034904532135    0.2703794539    0.089858144522    -0.021785223857    0.25666350126    
0.33016222715    0.31448689103    0.247710675    0.43577221036    
0.39969751098    0.5    0.5    0.5    0.5    
0.5    0.41131431    0.5    0.41188366054    0.5    
0.5    0.5    0.43198898891    0.5    0.41540583426    
0.5    0.33947748232    0.34029280491    0.3    0.4    
0.23878142205    0.23802795747    0.2    0.13704872465    0.13647533199    
0.1    -0.033454306713    0.0    -0.034165135222    0.05080410852    
0.051328268973    -0.1    0.42790726717    0.5    0.42838880419    
0.5    0.5    0.5    -0.004451597045    0.024051796645    
-0.083182727769    0.0074893949164    0.13091126552    0.069117591781    0.32892737464    
0.35470357537    0.32329967478    0.38945969939    0.02353441529    0.052729285155    
0.051370315306    0.15569507495    0.18050545454    0.14815816148    0.23766310229    
0.056480263476    -0.051343418658    -0.066395926384    -0.16351815207    0.11606233567    
0.28217272988    0.28777328134    0.28424562361    0.18327124417    0.17398359979    
0.17219533633    0.10724130273    0.10954857444    0.5    0.40536576509    
0.33852508245    0.5    0.4055327177    0.5    0.5    
0.41416463256    0.32314076394    0.41706010699    0.5    0.5    
0.40081068873    0.10542630627    0.074683457613    0.13552636399    0.14316341544    
0.047655455768    0.32669885795    0.33583059907    0.39862014685    0.22402612177    
0.29128858447    0.23973024376    0.17749716341    0.080155737698    0.17115314305    
0.23476967469    0.29881185293    0.16721591353    0.26167833805    0.229218125    
0.31865110993    0.41635105014    0.10479418933    0.037101287395    0.098883368075    
-0.080692149699    0.42559543252    0.42262995243    0.42029249668    0.41375112534    
0.5    0.30273240805    0.38607373834    0.20481482148    0.23920804262    
0.21166716516    0.11139494926    0.11394380033    0.013350881636    -0.0040942735631    
0.015413438901    0.23833499849    0.30417972803    0.318215698    0.12659868598    
0.16664245725    0.22263081372    -0.032839149237    0.03692343086    0.025269117206    
0.13677279651    0.32977220416    0.051976907998    0.23928229511    0.22956226766    
0.41255375743    0.2484177351    0.22946728766    0.29424312711    0.18749162555    
0.29553985596    0.062724344432    0.11355000734    0.15976892412    0.20585776865    
0.14440822601    0.16567063332    0.25087565184    0.2582000196    0.12977704406    
0.095714308321    0.23786218464    0.16071335971    0.15739028156    
-0.33866664818    -0.4    -0.33849824765    -0.3    -0.5    
-0.41456064362    -0.5    -0.5    -0.23538588605    -0.23502995202    
-0.43246794108    -0.5    -0.5    -0.5    -0.5    
-0.41665129901    -0.5    -0.41757449073    -0.5    -0.5    
-0.41433816876    -0.5    -0.5    -0.41609585065    -0.5    
-0.5    -0.41621550818    -0.5    -0.5    -0.5    
-0.43188041874    -0.5    -0.5    -0.5    -0.430184567    
-0.43012969401    -0.5    -0.41677308049    -0.054975019742    -0.012617296539    
-0.019241548604    0.046792553739    0.050671573191    -0.029669427208    -0.26209446696    
-0.22357727587    -0.17325149594    -0.39547523856    -0.39541178942    -0.33813941609    
-0.5    -0.15709710907    -0.11217790842    -0.06347358832    -0.11596301325    
-0.13308059917    -0.069024145603    -0.1328558622    -0.07452854626    -0.014157147147    
-0.5    -0.38759097457    -0.33086023526    -0.38553187251    -0.32616159469    
-0.5    -0.17599338293    -0.23780244737    -0.33962245788    -0.39628782868    
-0.5    -0.3307702295    -0.31030526757    -0.2616473045    -0.2292807784    
-0.22107885778    -0.5    -0.38605517149    -0.32695359205    -0.24055238104    
-0.30237615108    -0.5    -0.42226782441    -0.5    -0.5    
-0.40872132778    -0.5    -0.40458709002    -0.5    -0.5    
-0.41133615375    -0.5    -0.4123454988    -0.40952453017    -0.41247218847    
-0.5    -0.40432164073    -0.40178945661    -0.17723600566    -0.22976599836    
-0.30431655049    -0.161204651    -0.41993972659    -0.10843267292    -0.29801934958    
-0.1657396853    -0.28936305642    -0.29811424017    -0.3056512773    -0.41521838307    
-0.41754678867    -0.40931525826    -0.41986095905    -0.41892081499    -0.40299513936    
-0.27692452073    -0.43074804544    -0.094377815723    -0.20341610909    -0.23363482805    
-0.30833655596    -0.38140290976    -0.31372946501    -0.27856189013    -0.34880107641    
-0.33120939136    -0.15389552712    -0.10657566041    -0.15957440436    -0.050448991358    
0.0090291341767    -0.33499318361    -0.3161945343    -0.35348820686    -0.36035710573    
-0.2097568959    -0.22581070662    -0.32144889235    -0.33216997981    -0.19581690431    
-0.20140074193    -0.085743904114    -0.17525468767    -0.25212776661    -0.059111025184    
-0.33338880539    -0.24118041992    -0.26400905848    -0.25361275673    -0.31545513868    
-0.23053814471    -0.26838359237    -0.11375630647    -0.23034669459    
207.039429121    207.408126707    201.486126239    270.863531134    149.183678913    
193.467822422    391.104024277    397.075781931    398.891875602    399.115960024    
399.270358627    399.661476809    399.579232484    364.624734201    222.866590749    
269.713333207    219.77573472    131.091554385    395.276937525    392.527393884    
395.555578225    353.371555431    366.657410092    272.146107242    164.171607196    
221.444793503    314.979718751    241.251407281    372.068417357    336.151191528    
370.475347185    358.971914581    397.42312778    397.869034124    397.079655835    
397.768199629    387.086551068    389.474307898    396.708853972    396.231157946    
391.621982282    388.119996087    385.499611147    381.384584826    388.467090579    
363.819614278    391.725194485    382.338083471    388.852319875    391.043771099    
391.121552291    384.167447821    395.868123754    387.058402    392.083597845    
395.531153153    396.348647957    396.783265674    393.545458497    390.085611574    
383.185883185    75.6236637104    171.7671611    65.1303558821    321.942495929    
271.78385789    198.902541653    200.41500978    101.143156515    53.7420672618    
38.5192490241    56.2596844368    91.2425377753    356.483857043    341.184983685    
372.546924877    362.261958806    374.646254014    380.037719397    358.006913603    
380.622789931    332.307357448    286.498215131    357.976846171    313.624814303    
382.988792027    373.94380396    376.255902654    371.159457184    389.16337524    
383.619039084    368.792230534    388.30958578    386.255210244    373.696347196    
386.134054208    377.150052972    348.496629411    370.567080632    350.095908782    
377.096932823    348.526445237    377.770413953    381.977090343    362.090290318    
341.373260208    394.954523961    397.382423258    395.6210581    397.112448237    
398.669741029    398.492459447    397.956325023    398.769770251    396.294142196    
393.370269541    397.964638517    395.88209095    379.170997085    382.656866672    
374.690892659    390.411869772    382.668263217    382.108487387    393.85123932    
389.189773693    387.757689078    394.808131836    391.891058095    393.129729141    
391.544683672    386.623824822    390.66904728    388.318810052    393.972596151    
224.645644933    189.325369288    295.806419492    259.547517912    257.504306152    
355.85602845    336.600716592    319.755185739    315.08840908    196.25578233    
145.878861375    185.518987142    122.309206207    107.357270472    58.0693599337    
99.0504510355    208.933364698    259.260843966    85.8364577683    203.399743838    
321.012299544    209.083039386    109.681867238    235.738170298    88.2872794448    
105.674609316    35.9666871751    61.1010779306    23.8930499888    42.5523267046    
80.9068871302    115.125628493    242.574471377    203.676322148    194.555444703    
123.749023834    209.395345687    252.66239272    320.433784629    314.406423993    
209.315873381    95.3163583136    57.7058546582    166.822631863    78.783122684    
152.520055284    242.676574623    112.694061527    225.487800974    319.672075821    
346.520228979    328.432832843    352.361816853    325.732617924    374.334744634    
350.557956522    306.874380784    133.724504577    127.918099803    106.334971403    
101.808931717    125.022241431    175.260444933    231.829325222    206.85486753    
338.531445715    294.71243294    299.992477186    359.449755391    340.487093087    
300.001430304    296.709114275    310.331010542    197.840764484    362.431271622    
375.512444137    382.813724474    377.887686538    375.054238787    391.217389    
381.576618514    352.941690882    360.07279991    341.082227269    383.303055606    
368.675620148    391.282607633    378.855832039    354.670428447    370.621451569    
363.24592578    386.461513446    379.417756681    388.828975135    385.240618369    
376.706973747    377.808596109    358.944450807    378.494725546    380.63253361    
371.002576098    364.263820164    385.54742124    372.734059361    357.499353878    
384.369816452    389.205627979    390.063665869    396.722715238    394.668379535    
376.969915371    379.764552733    378.348778123    395.725378985    385.448130893    
392.127444866    360.546164444    361.214940358    388.317044448    395.501139519    
391.390670568    383.02529312    394.671141089    388.46894611    382.143512278    
390.437916659    386.801191443    391.824470164    396.435196075    391.904368441    
395.967083619    347.308848166    344.200201918    362.886644328    358.516151592    
359.263120955    348.531624919    177.509006075    223.975805756    198.492131966    
239.104721893    229.98904034    218.493237541    219.18909234    177.279967349    
358.464946402    366.53668068    362.739346937    364.002553574    368.689522617    
366.99442845    360.390152329    371.139524601    377.261889908    364.731072133    
358.531491536    377.163637461    373.344782711    370.051961714    359.827749016    
347.233660036    293.465684329    168.240530919    189.355007811    250.668000153    
274.89378258    380.186699269    371.298966973    283.08464045    323.565726353    
286.092611177    263.898505551    319.738545862    287.830555652    337.31689451    
326.148335214    340.594774633    80.0986803945    162.056933609    186.292624826    
160.287202265    64.6220756294    92.2039883641    31.1990853005    53.8142753816    
259.441988547    264.290730252    339.634623204    342.834321654    320.307446287    
279.129216482    338.283749645    340.561478146    327.836126173    278.97522796    
315.668949678    290.782441798    315.905150035    287.429323836    264.808093219    
252.350293548    343.219410855    355.278975272    354.60850692    249.14014772    
269.329418361    276.134193319    313.907904633    315.979890972    338.276377949    
348.930796441    334.007170476    327.684834341    337.109413127    352.936607383    
347.374870922    337.959033759    315.415122676    294.9662273    335.963406649    
341.864665818    326.618671913    332.424325242    319.242313313    321.931967219    
349.565135299    359.340117277    337.331820454    318.813593134    354.698474556    
304.014466064    306.556779549    298.19071626    271.594245802    256.085393209    
265.412623286    282.545967786    293.329904302    289.965371519    281.575651394    
266.978027412    263.160871101    331.164134803    325.175618545    320.954032478    
341.530572637    343.233647564    360.012614697    367.959400566    369.807505629    
361.753957054    366.525351055    344.510475215    339.178464333    333.656095798    
326.860330323    337.524944516    352.904665703    345.860899661    357.501995659    
347.696153946    362.626344155    355.94903345    373.293959328    367.131766832    
336.951284463    331.291621638    316.374260226    275.556373041    292.330693228    
263.732916396    277.107353641    297.640679468    292.453229942    322.834825194    
330.84244666    289.540003432    310.361237379    326.390972317    335.750789494    
326.08882433    295.779396897    298.633447206    326.20455771    322.674133232    
317.21180344    312.54667939    327.874438263    321.83812415    331.249355138    
325.239749959    110.283004864    150.728555824    292.366922128    136.390713316    
53.2364602288    95.5556933929    248.712205899    268.478256474    212.220994834    
241.636561756    381.320498928    374.187707272    376.907770666    374.507642025    
351.088657638    350.764826083    294.08283802    331.086261577    322.79542406    
311.898420783    296.256030483    274.312106042    266.018207325    358.039418301    
355.488725345    368.219593877    363.058932551    384.667207313    374.074323524    
360.243232913    369.456358768    356.071616169    377.835342973    379.766137524    
386.815164542    379.819840427    393.109644218    366.01698647    352.319564191    
394.110253216    383.669108712    
0.474050824903    0.477234560095    0.483035004998    0.461456768754    0.477525264534    
0.478431627771    0.34559394896    0.244897955561    0.144212502783    -0.00494111626456    
0.0172423548117    0.05044010346    -0.0429172094938    0.440796269983    0.481809010563    
0.464097982003    0.482019313742    0.482489743842    -0.0141304222985    0.0583993066201    
0.0236125224465    0.355069173073    0.38942729242    0.436527326594    0.469867416976    
0.448632252615    0.428967839142    0.453231177553    0.388360202087    0.411074518526    
0.367522834845    0.388045719904    0.0231984660943    0.0225361431611    0.022502171309    
0.00134949115089    0.180643088189    0.134157692058    -0.0913442998473    -0.052031980783    
-0.0289364740412    0.116765352621    0.0860216816777    0.287241585475    0.288092475849    
0.338780800203    0.291234675551    0.316514436231    0.290733780406    0.266404513568    
0.219644031633    0.247769754074    0.183721182589    0.236625807077    0.182976820223    
0.189004665372    0.164530164325    0.189425550169    0.21459054991    0.106330183955    
0.123917085472    0.475197299129    0.457752806524    0.475387401168    0.391660917278    
0.435906208114    0.457100625841    0.455527397225    0.478661923458    0.479273099727    
0.474833015098    0.474045819588    0.453773383901    0.368341521645    0.33806970729    
0.338933227008    0.311387477479    0.337066689475    0.279332633089    0.308769919158    
0.290412763701    0.341718222858    0.36515895073    0.338074050628    0.361664450925    
0.197607998268    0.183430556838    0.117390756952    0.142827295153    0.171332952788    
0.130948756381    0.299045014824    0.16753759838    0.22138869064    0.209313766061    
0.262701090406    0.28499512588    0.316569049718    0.30829642597    0.334667949957    
0.336719127937    0.360835542537    0.334456952691    0.288522811463    0.283836977522    
0.314278423744    0.141825954081    0.0855919796451    0.0572004159328    0.0570227116912    
0.0980497710748    0.0770948885002    0.119594969005    0.0983285428994    0.11579886596    
0.15057927179    0.0861812273753    0.0579500062821    0.0960698527932    0.106148727487    
0.118818349128    0.0775350749294    0.0916876953252    0.0623599047382    0.0398958114016    
0.0316314226923    0.00168371310778    0.00491532108261    -0.020690012127    0.108751971755    
0.108242161523    0.139032385983    0.0705979001014    -0.0395464978815    -0.0921595027197    
0.429108549065    0.429810716842    0.382393702199    0.383894914765    0.375902117883    
0.391142294809    0.368521841833    0.379969804503    0.358053880287    0.399306761047    
0.437456804362    0.404471412594    0.437312212692    0.457110983072    0.481242320125    
0.458347432601    0.438331282575    0.402818422073    0.482054212194    0.4601890577    
0.434955712026    0.457172163521    0.434776785033    0.36627101539    0.455305335737    
0.436169130779    0.480056658177    0.45952997151    0.481396222928    0.480437490132    
0.460369387655    0.431967950111    0.385358189299    0.398060785987    0.394544080761    
0.435628045669    0.434331343379    0.395584259338    0.389371642392    0.432219291562    
0.454905719822    0.477714484387    0.477745482459    0.428618370843    0.477561237995    
0.451586586708    0.433636223079    0.477068732675    0.458077461885    0.435390768357    
0.369844366359    0.367339946663    0.394894064464    0.392505130316    0.278975118707    
0.293147333117    0.336748535664    0.426675051607    0.424186723823    0.446441495326    
0.469051339865    0.448341809842    0.450191744344    0.434179105748    0.431264972564    
0.391883013313    0.390194642981    0.356110431558    0.364522807753    0.336290166919    
0.384655891011    0.353048262149    0.32479951051    0.431178303277    0.222310226296    
0.146230912867    0.130464737394    0.111652781353    0.129823298104    0.166557989914    
0.17379424611    0.228730878544    0.265195340313    0.279606672469    0.247457072334    
0.261787449103    0.199691898103    0.18679519838    0.286497670925    0.259176402344    
0.231221068368    0.229138208978    0.20120895301    0.232121555582    0.207854116528    
0.261970092157    0.236994792135    0.287151705882    0.166269720162    0.214506272896    
0.241141137088    0.273237546386    0.225123469381    0.259574679127    0.256483192072    
0.0848648094465    0.15150388852    0.135090580722    0.117564487415    0.100549852914    
0.173788651558    0.176939447235    0.106932124006    0.109866993868    0.13912737589    
0.0714665284756    0.111689621273    0.109793176926    -0.0239305051722    -0.000492027277973    
0.00803324162418    0.053686473555    0.0449571085324    0.0713673794725    0.0822749283708    
0.0490234705281    0.0601402772442    0.0353293146678    0.0440811755619    0.0709075800091    
0.0136405905374    0.235973120041    0.26846366371    0.221802568998    0.253152368966    
0.207161896422    0.239708803816    0.385064093388    0.357779244519    0.37545458329    
0.342858296711    0.335079983517    0.36982269438    0.371746430144    0.389348381446    
0.143625741895    0.114658640411    0.135322999658    0.171200250333    0.174284493209    
0.164933392383    0.0743842855445    0.0488169176786    0.00048856100985    0.0164712135482    
0.0534296733659    0.00851202353653    -0.00727067275227    0.051489631222    0.0739278668452    
0.09771238605    0.29304076877    0.388607614042    0.380518942284    0.354611056971    
0.334393954413    0.0716040424451    0.105818854285    0.278048294863    0.239477670334    
0.274945576434    0.291561168439    0.257495612981    0.281562978396    0.226350131757    
0.234526988696    0.181377193462    0.437679025828    0.390359941751    0.362764529212    
0.383744486652    0.452556660749    0.433993078746    0.477840566171    0.459650230156    
0.275520227728    0.286540738456    0.232989526109    0.201384819432    0.27290601019    
0.294448028234    0.223752530961    0.182256996905    0.197158977549    0.251909241357    
0.239454839625    0.263123361133    0.27351930045    0.293531762445    0.345264300245    
0.344010299115    0.276207173613    0.250474081365    0.24308034115    0.34048440415    
0.357712562768    0.353634359588    0.328503393625    0.324063338779    0.289514025771    
0.146748104424    0.17483805603    0.213817223184    0.0846918057578    0.0238897530152    
0.0591586748612    0.0820561430202    0.187101374107    0.216416308969    0.142802882396    
0.153965927067    0.180440489332    0.166359778507    0.16493934288    0.194937699364    
0.128619220865    0.117478156477    0.182159178263    0.199149142492    0.143240704945    
0.171995634964    0.199657227794    0.194679063018    0.263386822188    0.279568420347    
0.257576496742    0.222056001768    0.214678949374    0.218866160913    0.222928262913    
0.267636479186    0.268603801655    0.17456039225    0.163285575293    0.171863646235    
0.164542702701    0.174408897151    0.116635529445    0.111207722389    0.0854448778173    
0.143125744806    0.113853949703    0.138851353529    0.154651997918    0.152261840124    
0.16765836333    0.0920572150204    0.0892328526277    0.126120198372    0.14406068702    
0.163402965639    0.103357532196    0.110731058994    0.0778825724203    0.0628449150449    
0.200243591104    0.188349461282    0.203481158529    0.250016399423    0.219866979964    
0.274033287475    0.258504645629    0.220714174869    0.269755229092    0.199248136485    
0.225736911415    0.287644986189    0.290119139814    0.259880542021    0.227477654851    
0.265460956805    0.199504635173    0.174191066124    0.111136124898    0.118273956791    
0.154202582484    0.175999922389    0.146638482239    0.159955062672    0.118922658492    
0.133499089444    0.456493095117    0.437839450153    0.454291279993    0.477650590046    
0.47802515174    0.455521503037    0.347938224426    0.320483160408    0.354539197629    
0.330384085025    0.124120445987    0.138851750538    -0.0317506768988    -0.0129597048533    
0.220548439829    0.215663018283    0.30088309966    0.23199902679    0.231659969539    
0.229113763871    0.25342829382    0.303509420003    0.303322379743    0.136506930265    
0.161170301431    0.114559910721    0.140500208755    0.132067094892    0.150872655386    
0.158532115378    0.189648655815    0.197123742286    0.201536945769    0.116316360612    
0.134923144716    0.159731679081    0.164004445824    0.216394459358    0.205967047011    
0.168578745512    0.193429302358    
3     2     1     4     
7     6     5     8     
13     12     11     14     
11     12     13     15     
11     12     15     16     
15     16     12     5     
19     18     17     20     
19     22     21     23     
23     25     24     26     
29     28     27     30     
30     28     27     31     
30     28     31     26     
27     28     29     32     
35     34     33     20     
37     33     36     34     
33     34     35     36     
35     36     34     2     
11     13     14     38     
41     40     39     42     
40     43     44     42     
42     40     39     44     
47     46     45     9     
35     48     1     18     
35     33     36     48     
36     48     3     2     
1     2     3     48     
1     48     35     2     
35     36     2     48     
18     35     48     20     
20     33     35     48     
17     20     18     48     
20     33     48     17     
50     49     27     31     
30     31     27     49     
30     49     29     51     
30     27     29     49     
54     53     52     55     
52     53     54     56     
58     57     41     59     
41     57     58     39     
39     40     41     57     
43     60     44     54     
44     43     40     60     
22     62     61     17     
18     62     63     21     
17     48     18     62     
21     18     62     19     
17     18     19     62     
17     22     62     19     
21     22     19     62     
21     64     63     65     
21     62     63     64     
65     21     64     24     
21     22     62     64     
25     64     66     22     
22     25     64     23     
24     25     23     64     
24     21     64     23     
21     23     22     64     
68     67     52     56     
56     52     53     67     
70     38     11     69     
13     38     11     70     
3     73     72     74     
7     78     77     15     
15     7     78     5     
5     15     16     78     
5     6     7     78     
5     78     16     6     
6     78     16     79     
81     69     79     80     
79     69     81     16     
79     78     16     81     
89     88     87     7     
48     62     17     88     
61     88     89     17     
17     62     61     88     
87     88     89     61     
61     91     90     87     
87     88     61     91     
87     91     90     77     
7     88     87     91     
88     91     7     78     
77     87     91     7     
77     78     7     91     
96     95     85     92     
92     95     85     93     
83     95     94     85     
93     95     85     94     
85     95     96     84     
85     83     95     84     
77     97     96     71     
82     98     90     66     
100     99     55     52     
55     53     52     99     
55     99     100     47     
47     99     100     45     
45     46     47     99     
63     62     18     101     
18     62     48     101     
18     63     101     1     
18     48     1     101     
63     101     1     45     
63     101     45     100     
45     99     100     101     
45     46     99     101     
24     25     64     103     
30     103     51     25     
51     30     49     103     
30     31     49     103     
25     30     103     26     
31     30     26     103     
24     26     25     103     
31     103     26     24     
24     103     65     50     
24     64     65     103     
31     103     24     50     
31     50     49     103     
56     67     53     104     
56     53     54     104     
54     104     53     60     
54     56     104     44     
54     60     44     104     
44     60     40     104     
56     104     44     39     
39     44     40     104     
40     57     39     104     
39     56     104     58     
58     39     57     104     
65     105     68     50     
50     103     65     105     
65     103     64     105     
49     103     50     105     
58     104     57     106     
59     58     57     106     
1     48     3     107     
3     107     48     73     
1     101     48     107     
73     107     48     101     
73     107     101     46     
9     107     45     1     
1     45     101     107     
9     46     45     107     
46     101     45     107     
73     107     46     76     
102     107     10     76     
76     107     46     102     
73     107     76     74     
76     107     10     74     
74     107     10     3     
74     3     73     107     
10     107     102     9     
46     107     9     102     
10     3     107     4     
9     10     107     4     
1     9     107     4     
1     3     4     107     
79     78     81     108     
88     91     78     108     
74     73     72     108     
74     76     73     108     
72     74     108     75     
74     76     108     75     
72     75     108     79     
72     79     108     6     
6     78     79     108     
69     81     70     109     
88     110     48     73     
88     108     78     110     
73     88     110     108     
72     108     73     110     
7     78     6     110     
7     88     78     110     
7     89     88     110     
7     89     110     8     
8     7     6     110     
8     110     6     111     
111     110     6     72     
3     73     48     110     
36     110     111     3     
3     48     36     110     
36     48     33     110     
111     110     36     37     
36     33     37     110     
37     110     33     89     
17     88     89     110     
17     48     88     110     
89     110     33     17     
33     48     17     110     
96     112     92     71     
71     97     96     112     
71     97     112     70     
16     81     78     113     
70     81     69     113     
16     69     81     113     
16     69     113     11     
11     70     69     113     
11     16     15     113     
11     15     13     113     
11     13     70     113     
13     113     15     71     
70     113     13     71     
70     71     97     113     
71     113     15     77     
71     77     97     113     
15     78     77     113     
78     91     77     113     
97     113     77     91     
16     78     15     113     
91     114     98     90     