Title = " tecplot file for 2D Cavity problem " 
variables = "x", "y", "z", "velX", "cellCentroidY" 
Zone T = "nmesh0" N = 1331 E = 1000 DATAPACKING = BLOCK, VARLOCATION = ([4-5]=CELLCENTERED), ZONETYPE=FEBRICK
0.45    0.45    0.5    0.5    0.45    
0.5    0.45    0.45    0.45    0.5    
0.5    0.45    0.45    0.5    0.5    
0.45    0.45    0.5    0.5    0.45    
0.45    0.5    0.5    0.45    0.45    
0.5    0.5    0.45    0.45    0.5    
0.5    0.45    0.45    0.5    0.5    
0.45    0.45    0.5    0.5    0.45    
0.45    0.5    0.5    0.45    0.5    
0.45    0.5    0.45    0.5    0.45    
0.5    0.45    0.5    0.45    0.5    
0.45    0.5    0.45    0.5    0.45    
0.5    0.45    0.5    0.45    0.5    
0.45    0.5    0.45    0.5    0.45    
0.5    0.45    0.5    0.45    0.5    
0.45    0.5    0.45    0.5    0.45    
0.5    0.45    0.5    0.45    0.5    
0.45    0.5    0.45    0.5    0.45    
0.5    0.45    0.5    0.45    0.5    
0.45    0.5    0.45    0.5    0.45    
0.5    0.45    0.5    0.45    0.5    
0.45    0.5    0.45    0.5    0.45    
0.5    0.45    0.5    0.45    0.5    
0.45    0.5    0.45    0.5    0.45    
0.5    0.45    0.5    0.45    0.5    
0.45    0.5    0.45    0.5    0.45    
0.5    0.45    0.5    0.45    0.5    
0.45    0.5    0.45    0.5    0.45    
0.5    0.45    0.5    0.45    0.5    
0.45    0.5    0.45    0.5    0.45    
0.5    0.45    0.5    0.45    0.5    
0.45    0.5    0.45    0.5    0.45    
0.5    0.45    0.5    0.45    0.5    
0.45    0.5    0.45    0.5    0.45    
0.5    0.45    0.5    0.45    0.5    
0.45    0.5    0.45    0.5    0.45    
0.5    0.45    0.5    0.45    0.5    
0.45    0.5    0.45    0.5    0.45    
0.5    0.45    0.5    0.45    0.5    
0.45    0.5    0.45    0.5    0.45    
0.5    0.45    0.5    0.45    0.5    
0.45    0.5    0.45    0.5    0.45    
0.5    0.45    0.5    0.45    0.5    
0.45    0.5    0.45    0.5    0.45    
0.5    0.45    0.5    0.45    0.5    
0.45    0.5    0.45    0.5    0.45    
0.5    0.45    0.5    0.45    0.5    
0.45    0.5    0.45    0.5    0.45    
0.5    0.4    0.4    0.4    0.4    
0.4    0.4    0.4    0.4    0.4    
0.4    0.4    0.4    0.4    0.4    
0.4    0.4    0.4    0.4    0.4    
0.4    0.4    0.4    0.4    0.4    
0.4    0.4    0.4    0.4    0.4    
0.4    0.4    0.4    0.4    0.4    
0.4    0.4    0.4    0.4    0.4    
0.4    0.4    0.4    0.4    0.4    
0.4    0.4    0.4    0.4    0.4    
0.4    0.4    0.4    0.4    0.4    
0.4    0.4    0.4    0.4    0.4    
0.4    0.4    0.4    0.4    0.4    
0.4    0.4    0.4    0.4    0.4    
0.4    0.4    0.4    0.4    0.4    
0.4    0.4    0.4    0.4    0.4    
0.4    0.4    0.4    0.4    0.4    
0.4    0.4    0.4    0.4    0.4    
0.4    0.4    0.4    0.4    0.4    
0.4    0.4    0.4    0.4    0.4    
0.4    0.4    0.4    0.4    0.4    
0.4    0.4    0.4    0.4    0.4    
0.4    0.4    0.4    0.4    0.4    
0.4    0.4    0.4    0.4    0.4    
0.4    0.4    0.35    0.35    0.35    
0.35    0.35    0.35    0.35    0.35    
0.35    0.35    0.35    0.35    0.35    
0.35    0.35    0.35    0.35    0.35    
0.35    0.35    0.35    0.35    0.35    
0.35    0.35    0.35    0.35    0.35    
0.35    0.35    0.35    0.35    0.35    
0.35    0.35    0.35    0.35    0.35    
0.35    0.35    0.35    0.35    0.35    
0.35    0.35    0.35    0.35    0.35    
0.35    0.35    0.35    0.35    0.35    
0.35    0.35    0.35    0.35    0.35    
0.35    0.35    0.35    0.35    0.35    
0.35    0.35    0.35    0.35    0.35    
0.35    0.35    0.35    0.35    0.35    
0.35    0.35    0.35    0.35    0.35    
0.35    0.35    0.35    0.35    0.35    
0.35    0.35    0.35    0.35    0.35    
0.35    0.35    0.35    0.35    0.35    
0.35    0.35    0.35    0.35    0.35    
0.35    0.35    0.35    0.35    0.35    
0.35    0.35    0.35    0.35    0.35    
0.35    0.35    0.35    0.35    0.35    
0.35    0.35    0.35    0.35    0.35    
0.35    0.35    0.35    0.3    0.3    
0.3    0.3    0.3    0.3    0.3    
0.3    0.3    0.3    0.3    0.3    
0.3    0.3    0.3    0.3    0.3    
0.3    0.3    0.3    0.3    0.3    
0.3    0.3    0.3    0.3    0.3    
0.3    0.3    0.3    0.3    0.3    
0.3    0.3    0.3    0.3    0.3    
0.3    0.3    0.3    0.3    0.3    
0.3    0.3    0.3    0.3    0.3    
0.3    0.3    0.3    0.3    0.3    
0.3    0.3    0.3    0.3    0.3    
0.3    0.3    0.3    0.3    0.3    
0.3    0.3    0.3    0.3    0.3    
0.3    0.3    0.3    0.3    0.3    
0.3    0.3    0.3    0.3    0.3    
0.3    0.3    0.3    0.3    0.3    
0.3    0.3    0.3    0.3    0.3    
0.3    0.3    0.3    0.3    0.3    
0.3    0.3    0.3    0.3    0.3    
0.3    0.3    0.3    0.3    0.3    
0.3    0.3    0.3    0.3    0.3    
0.3    0.3    0.3    0.3    0.3    
0.3    0.3    0.3    0.3    0.3    
0.3    0.3    0.3    0.3    0.25    
0.25    0.25    0.25    0.25    0.25    
0.25    0.25    0.25    0.25    0.25    
0.25    0.25    0.25    0.25    0.25    
0.25    0.25    0.25    0.25    0.25    
0.25    0.25    0.25    0.25    0.25    
0.25    0.25    0.25    0.25    0.25    
0.25    0.25    0.25    0.25    0.25    
0.25    0.25    0.25    0.25    0.25    
0.25    0.25    0.25    0.25    0.25    
0.25    0.25    0.25    0.25    0.25    
0.25    0.25    0.25    0.25    0.25    
0.25    0.25    0.25    0.25    0.25    
0.25    0.25    0.25    0.25    0.25    
0.25    0.25    0.25    0.25    0.25    
0.25    0.25    0.25    0.25    0.25    
0.25    0.25    0.25    0.25    0.25    
0.25    0.25    0.25    0.25    0.25    
0.25    0.25    0.25    0.25    0.25    
0.25    0.25    0.25    0.25    0.25    
0.25    0.25    0.25    0.25    0.25    
0.25    0.25    0.25    0.25    0.25    
0.25    0.25    0.25    0.25    0.25    
0.25    0.25    0.25    0.25    0.25    
0.25    0.25    0.25    0.25    0.25    
0.2    0.2    0.2    0.2    0.2    
0.2    0.2    0.2    0.2    0.2    
0.2    0.2    0.2    0.2    0.2    
0.2    0.2    0.2    0.2    0.2    
0.2    0.2    0.2    0.2    0.2    
0.2    0.2    0.2    0.2    0.2    
0.2    0.2    0.2    0.2    0.2    
0.2    0.2    0.2    0.2    0.2    
0.2    0.2    0.2    0.2    0.2    
0.2    0.2    0.2    0.2    0.2    
0.2    0.2    0.2    0.2    0.2    
0.2    0.2    0.2    0.2    0.2    
0.2    0.2    0.2    0.2    0.2    
0.2    0.2    0.2    0.2    0.2    
0.2    0.2    0.2    0.2    0.2    
0.2    0.2    0.2    0.2    0.2    
0.2    0.2    0.2    0.2    0.2    
0.2    0.2    0.2    0.2    0.2    
0.2    0.2    0.2    0.2    0.2    
0.2    0.2    0.2    0.2    0.2    
0.2    0.2    0.2    0.2    0.2    
0.2    0.2    0.2    0.2    0.2    
0.2    0.2    0.2    0.2    0.2    
0.2    0.2    0.2    0.2    0.2    
0.2    0.15    0.15    0.15    0.15    
0.15    0.15    0.15    0.15    0.15    
0.15    0.15    0.15    0.15    0.15    
0.15    0.15    0.15    0.15    0.15    
0.15    0.15    0.15    0.15    0.15    
0.15    0.15    0.15    0.15    0.15    
0.15    0.15    0.15    0.15    0.15    
0.15    0.15    0.15    0.15    0.15    
0.15    0.15    0.15    0.15    0.15    
0.15    0.15    0.15    0.15    0.15    
0.15    0.15    0.15    0.15    0.15    
0.15    0.15    0.15    0.15    0.15    
0.15    0.15    0.15    0.15    0.15    
0.15    0.15    0.15    0.15    0.15    
0.15    0.15    0.15    0.15    0.15    
0.15    0.15    0.15    0.15    0.15    
0.15    0.15    0.15    0.15    0.15    
0.15    0.15    0.15    0.15    0.15    
0.15    0.15    0.15    0.15    0.15    
0.15    0.15    0.15    0.15    0.15    
0.15    0.15    0.15    0.15    0.15    
0.15    0.15    0.15    0.15    0.15    
0.15    0.15    0.15    0.15    0.15    
0.15    0.15    0.15    0.15    0.15    
0.15    0.15    0.1    0.1    0.1    
0.1    0.1    0.1    0.1    0.1    
0.1    0.1    0.1    0.1    0.1    
0.1    0.1    0.1    0.1    0.1    
0.1    0.1    0.1    0.1    0.1    
0.1    0.1    0.1    0.1    0.1    
0.1    0.1    0.1    0.1    0.1    
0.1    0.1    0.1    0.1    0.1    
0.1    0.1    0.1    0.1    0.1    
0.1    0.1    0.1    0.1    0.1    
0.1    0.1    0.1    0.1    0.1    
0.1    0.1    0.1    0.1    0.1    
0.1    0.1    0.1    0.1    0.1    
0.1    0.1    0.1    0.1    0.1    
0.1    0.1    0.1    0.1    0.1    
0.1    0.1    0.1    0.1    0.1    
0.1    0.1    0.1    0.1    0.1    
0.1    0.1    0.1    0.1    0.1    
0.1    0.1    0.1    0.1    0.1    
0.1    0.1    0.1    0.1    0.1    
0.1    0.1    0.1    0.1    0.1    
0.1    0.1    0.1    0.1    0.1    
0.1    0.1    0.1    0.1    0.1    
0.1    0.1    0.1    0.1    0.1    
0.1    0.1    0.1    0.05    0.05    
0.05    0.05    0.05    0.05    0.05    
0.05    0.05    0.05    0.05    0.05    
0.05    0.05    0.05    0.05    0.05    
0.05    0.05    0.05    0.05    0.05    
0.05    0.05    0.05    0.05    0.05    
0.05    0.05    0.05    0.05    0.05    
0.05    0.05    0.05    0.05    0.05    
0.05    0.05    0.05    0.05    0.05    
0.05    0.05    0.05    0.05    0.05    
0.05    0.05    0.05    0.05    0.05    
0.05    0.05    0.05    0.05    0.05    
0.05    0.05    0.05    0.05    0.05    
0.05    0.05    0.05    0.05    0.05    
0.05    0.05    0.05    0.05    0.05    
0.05    0.05    0.05    0.05    0.05    
0.05    0.05    0.05    0.05    0.05    
0.05    0.05    0.05    0.05    0.05    
0.05    0.05    0.05    0.05    0.05    
0.05    0.05    0.05    0.05    0.05    
0.05    0.05    0.05    0.05    0.05    
0.05    0.05    0.05    0.05    0.05    
0.05    0.05    0.05    0.05    0.05    
0.05    0.05    0.05    0.05    0.05    
0.05    0.05    0.05    0.05    -1.0408340856e-17    
-2.7755575616e-17    -1.9081958236e-17    0.0    -2.0816681712e-17    -2.7755575616e-17    
0.0    0.0    2.0816681712e-17    0.0    6.9388939039e-18    
0.0    0.0    0.0    -1.3877787808e-17    -2.7755575616e-17    
0.0    0.0    0.0    0.0    0.0    
0.0    -2.7755575616e-17    -1.0408340856e-17    -2.7755575616e-17    0.0    
0.0    0.0    0.0    -2.7755575616e-17    0.0    
0.0    0.0    0.0    1.3877787808e-17    0.0    
0.0    2.7755575616e-17    0.0    0.0    0.0    
0.0    0.0    0.0    2.7755575616e-17    2.7755575616e-17    
0.0    2.7755575616e-17    2.7755575616e-17    2.7755575616e-17    0.0    
0.0    0.0    0.0    0.0    0.0    
6.9388939039e-18    0.0    0.0    2.7755575616e-17    0.0    
0.0    -2.7755575616e-17    0.0    0.0    0.0    
0.0    1.3877787808e-17    0.0    0.0    2.7755575616e-17    
0.0    0.0    -2.7755575616e-17    0.0    0.0    
0.0    -2.7755575616e-17    -2.7755575616e-17    -2.7755575616e-17    -2.7755575616e-17    
0.0    0.0    -2.7755575616e-17    -2.7755575616e-17    0.0    
0.0    0.0    0.0    0.0    0.0    
0.0    0.0    0.0    0.0    -2.7755575616e-17    
0.0    0.0    0.0    0.0    1.3877787808e-17    
0.0    0.0    2.7755575616e-17    0.0    0.0    
-2.7755575616e-17    0.0    0.0    0.0    0.0    
0.0    0.0    0.0    0.0    0.0    
0.0    -2.7755575616e-17    0.0    0.0    0.0    
0.5    
-0.45    -0.45    -0.45    -0.45    -0.5    
-0.5    -0.5    -0.4    -0.4    -0.4    
-0.4    -0.35    -0.35    -0.35    -0.35    
-0.3    -0.3    -0.3    -0.3    -0.25    
-0.25    -0.25    -0.25    -0.2    -0.2    
-0.2    -0.2    -0.15    -0.15    -0.15    
-0.15    -0.1    -0.1    -0.1    -0.1    
-0.05    -0.05    -0.05    -0.05    1.0408340856e-17    
-1.7173762412e-17    -1.9081958236e-17    0.0    -0.45    -0.45    
-0.5    -0.5    -0.4    -0.4    -0.35    
-0.35    -0.3    -0.3    -0.25    -0.25    
-0.2    -0.2    -0.15    -0.15    -0.1    
-0.1    -0.05    -0.05    -9.3675067703e-18    -1.0408340856e-17    
-0.45    -0.45    -0.5    -0.5    -0.4    
-0.4    -0.35    -0.35    -0.3    -0.3    
-0.25    -0.25    -0.2    -0.2    -0.15    
-0.15    -0.1    -0.1    -0.05    -0.05    
1.2490009027e-17    1.3877787808e-17    -0.45    -0.45    -0.5    
-0.5    -0.4    -0.4    -0.35    -0.35    
-0.3    -0.3    -0.25    -0.25    -0.2    
-0.2    -0.15    -0.15    -0.1    -0.1    
-0.05    -0.05    2.4980018054e-17    2.7755575616e-17    -0.45    
-0.45    -0.5    -0.5    -0.4    -0.4    
-0.35    -0.35    -0.3    -0.3    -0.25    
-0.25    -0.2    -0.2    -0.15    -0.15    
-0.1    -0.1    -0.05    -0.05    6.2450045135e-18    
6.9388939039e-18    -0.45    -0.45    -0.5    -0.5    
-0.4    -0.4    -0.35    -0.35    -0.3    
-0.3    -0.25    -0.25    -0.2    -0.2    
-0.15    -0.15    -0.1    -0.1    -0.05    
-0.05    1.2490009027e-17    1.3877787808e-17    -0.45    -0.45    
-0.5    -0.5    -0.4    -0.4    -0.35    
-0.35    -0.3    -0.3    -0.25    -0.25    
-0.2    -0.2    -0.15    -0.15    -0.1    
-0.1    -0.05    -0.05    -2.4980018054e-17    -2.7755575616e-17    
-0.45    -0.45    -0.5    -0.5    -0.4    
-0.4    -0.35    -0.35    -0.3    -0.3    
-0.25    -0.25    -0.2    -0.2    -0.15    
-0.15    -0.1    -0.1    -0.05    -0.05    
0.0    0.0    -0.45    -0.45    -0.5    
-0.5    -0.4    -0.4    -0.35    -0.35    
-0.3    -0.3    -0.25    -0.25    -0.2    
-0.2    -0.15    -0.15    -0.1    -0.1    
-0.05    -0.05    1.2490009027e-17    1.3877787808e-17    -0.45    
-0.45    -0.5    -0.5    -0.4    -0.4    
-0.35    -0.35    -0.3    -0.3    -0.25    
-0.25    -0.2    -0.2    -0.15    -0.15    
-0.1    -0.1    -0.05    -0.05    0.0    
0.0    -0.45    -0.45    -0.5    -0.5    
-0.4    -0.4    -0.35    -0.35    -0.3    
-0.3    -0.25    -0.25    -0.2    -0.2    
-0.15    -0.15    -0.1    -0.1    -0.05    
-0.05    6.9388939039e-18    -1.5265566589e-17    -0.45    -0.5    
-0.4    -0.35    -0.3    -0.25    -0.2    
-0.15    -0.1    -0.05    -8.3266726847e-18    -0.45    
-0.5    -0.4    -0.35    -0.3    -0.25    
-0.2    -0.15    -0.1    -0.05    1.1102230246e-17    
-0.45    -0.5    -0.4    -0.35    -0.3    
-0.25    -0.2    -0.15    -0.1    -0.05    
2.2204460493e-17    -0.45    -0.5    -0.4    -0.35    
-0.3    -0.25    -0.2    -0.15    -0.1    
-0.05    5.5511151231e-18    -0.45    -0.5    -0.4    
-0.35    -0.3    -0.25    -0.2    -0.15    
-0.1    -0.05    1.1102230246e-17    -0.45    -0.5    
-0.4    -0.35    -0.3    -0.25    -0.2    
-0.15    -0.1    -0.05    -2.2204460493e-17    -0.45    
-0.5    -0.4    -0.35    -0.3    -0.25    
-0.2    -0.15    -0.1    -0.05    0.0    
-0.45    -0.5    -0.4    -0.35    -0.3    
-0.25    -0.2    -0.15    -0.1    -0.05    
1.1102230246e-17    -0.45    -0.5    -0.4    -0.35    
-0.3    -0.25    -0.2    -0.15    -0.1    
-0.05    0.0    -0.45    -0.45    -0.5    
-0.5    -0.4    -0.4    -0.35    -0.35    
-0.3    -0.3    -0.25    -0.25    -0.2    
-0.2    -0.15    -0.15    -0.1    -0.1    
-0.05    -0.05    1.3877787808e-17    -1.3357370765e-17    -0.45    
-0.5    -0.4    -0.35    -0.3    -0.25    
-0.2    -0.15    -0.1    -0.05    -7.2858385991e-18    
-0.45    -0.5    -0.4    -0.35    -0.3    
-0.25    -0.2    -0.15    -0.1    -0.05    
9.7144514655e-18    -0.45    -0.5    -0.4    -0.35    
-0.3    -0.25    -0.2    -0.15    -0.1    
-0.05    1.9428902931e-17    -0.45    -0.5    -0.4    
-0.35    -0.3    -0.25    -0.2    -0.15    
-0.1    -0.05    4.8572257327e-18    -0.45    -0.5    
-0.4    -0.35    -0.3    -0.25    -0.2    
-0.15    -0.1    -0.05    9.7144514655e-18    -0.45    
-0.5    -0.4    -0.35    -0.3    -0.25    
-0.2    -0.15    -0.1    -0.05    -1.9428902931e-17    
-0.45    -0.5    -0.4    -0.35    -0.3    
-0.25    -0.2    -0.15    -0.1    -0.05    
0.0    -0.45    -0.5    -0.4    -0.35    
-0.3    -0.25    -0.2    -0.15    -0.1    
-0.05    9.7144514655e-18    -0.45    -0.5    -0.4    
-0.35    -0.3    -0.25    -0.2    -0.15    
-0.1    -0.05    0.0    -0.45    -0.45    
-0.5    -0.5    -0.4    -0.4    -0.35    
-0.35    -0.3    -0.3    -0.25    -0.25    
-0.2    -0.2    -0.15    -0.15    -0.1    
-0.1    -0.05    -0.05    6.9388939039e-18    -1.1449174941e-17    
-0.45    -0.5    -0.4    -0.35    -0.3    
-0.25    -0.2    -0.15    -0.1    -0.05    
-6.2450045135e-18    -0.45    -0.5    -0.4    -0.35    
-0.3    -0.25    -0.2    -0.15    -0.1    
-0.05    8.3266726847e-18    -0.45    -0.5    -0.4    
-0.35    -0.3    -0.25    -0.2    -0.15    
-0.1    -0.05    1.6653345369e-17    -0.45    -0.5    
-0.4    -0.35    -0.3    -0.25    -0.2    
-0.15    -0.1    -0.05    4.1633363423e-18    -0.45    
-0.5    -0.4    -0.35    -0.3    -0.25    
-0.2    -0.15    -0.1    -0.05    8.3266726847e-18    
-0.45    -0.5    -0.4    -0.35    -0.3    
-0.25    -0.2    -0.15    -0.1    -0.05    
-1.6653345369e-17    -0.45    -0.5    -0.4    -0.35    
-0.3    -0.25    -0.2    -0.15    -0.1    
-0.05    0.0    -0.45    -0.5    -0.4    
-0.35    -0.3    -0.25    -0.2    -0.15    
-0.1    -0.05    8.3266726847e-18    -0.45    -0.5    
-0.4    -0.35    -0.3    -0.25    -0.2    
-0.15    -0.1    -0.05    0.0    -0.45    
-0.45    -0.5    -0.5    -0.4    -0.4    
-0.35    -0.35    -0.3    -0.3    -0.25    
-0.25    -0.2    -0.2    -0.15    -0.15    
-0.1    -0.1    -0.05    -0.05    -6.9388939039e-18    
-9.5409791179e-18    -0.45    -0.5    -0.4    -0.35    
-0.3    -0.25    -0.2    -0.15    -0.1    
-0.05    -5.2041704279e-18    -0.45    -0.5    -0.4    
-0.35    -0.3    -0.25    -0.2    -0.15    
-0.1    -0.05    6.9388939039e-18    -0.45    -0.5    
-0.4    -0.35    -0.3    -0.25    -0.2    
-0.15    -0.1    -0.05    1.3877787808e-17    -0.45    
-0.5    -0.4    -0.35    -0.3    -0.25    
-0.2    -0.15    -0.1    -0.05    3.469446952e-18    
-0.45    -0.5    -0.4    -0.35    -0.3    
-0.25    -0.2    -0.15    -0.1    -0.05    
6.9388939039e-18    -0.45    -0.5    -0.4    -0.35    
-0.3    -0.25    -0.2    -0.15    -0.1    
-0.05    -1.3877787808e-17    -0.45    -0.5    -0.4    
-0.35    -0.3    -0.25    -0.2    -0.15    
-0.1    -0.05    0.0    -0.45    -0.5    
-0.4    -0.35    -0.3    -0.25    -0.2    
-0.15    -0.1    -0.05    6.9388939039e-18    -0.45    
-0.5    -0.4    -0.35    -0.3    -0.25    
-0.2    -0.15    -0.1    -0.05    0.0    
-0.45    -0.45    -0.5    -0.5    -0.4    
-0.4    -0.35    -0.35    -0.3    -0.3    
-0.25    -0.25    -0.2    -0.2    -0.15    
-0.15    -0.1    -0.1    -0.05    -0.05    
1.3877787808e-17    -7.6327832943e-18    -0.45    -0.5    -0.4    
-0.35    -0.3    -0.25    -0.2    -0.15    
-0.1    -0.05    -4.1633363423e-18    -0.45    -0.5    
-0.4    -0.35    -0.3    -0.25    -0.2    
-0.15    -0.1    -0.05    5.5511151231e-18    -0.45    
-0.5    -0.4    -0.35    -0.3    -0.25    
-0.2    -0.15    -0.1    -0.05    1.1102230246e-17    
-0.45    -0.5    -0.4    -0.35    -0.3    
-0.25    -0.2    -0.15    -0.1    -0.05    
2.7755575616e-18    -0.45    -0.5    -0.4    -0.35    
-0.3    -0.25    -0.2    -0.15    -0.1    
-0.05    5.5511151231e-18    -0.45    -0.5    -0.4    
-0.35    -0.3    -0.25    -0.2    -0.15    
-0.1    -0.05    -1.1102230246e-17    -0.45    -0.5    
-0.4    -0.35    -0.3    -0.25    -0.2    
-0.15    -0.1    -0.05    0.0    -0.45    
-0.5    -0.4    -0.35    -0.3    -0.25    
-0.2    -0.15    -0.1    -0.05    5.5511151231e-18    
-0.45    -0.5    -0.4    -0.35    -0.3    
-0.25    -0.2    -0.15    -0.1    -0.05    
0.0    -0.45    -0.45    -0.5    -0.5    
-0.4    -0.4    -0.35    -0.35    -0.3    
-0.3    -0.25    -0.25    -0.2    -0.2    
-0.15    -0.15    -0.1    -0.1    -0.05    
-0.05    1.3877787808e-17    -5.7245874707e-18    -0.45    -0.5    
-0.4    -0.35    -0.3    -0.25    -0.2    
-0.15    -0.1    -0.05    -3.1225022568e-18    -0.45    
-0.5    -0.4    -0.35    -0.3    -0.25    
-0.2    -0.15    -0.1    -0.05    4.1633363423e-18    
-0.45    -0.5    -0.4    -0.35    -0.3    
-0.25    -0.2    -0.15    -0.1    -0.05    
8.3266726847e-18    -0.45    -0.5    -0.4    -0.35    
-0.3    -0.25    -0.2    -0.15    -0.1    
-0.05    2.0816681712e-18    -0.45    -0.5    -0.4    
-0.35    -0.3    -0.25    -0.2    -0.15    
-0.1    -0.05    4.1633363423e-18    -0.45    -0.5    
-0.4    -0.35    -0.3    -0.25    -0.2    
-0.15    -0.1    -0.05    -8.3266726847e-18    -0.45    
-0.5    -0.4    -0.35    -0.3    -0.25    
-0.2    -0.15    -0.1    -0.05    0.0    
-0.45    -0.5    -0.4    -0.35    -0.3    
-0.25    -0.2    -0.15    -0.1    -0.05    
4.1633363423e-18    -0.45    -0.5    -0.4    -0.35    
-0.3    -0.25    -0.2    -0.15    -0.1    
-0.05    0.0    -0.45    -0.45    -0.5    
-0.5    -0.4    -0.4    -0.35    -0.35    
-0.3    -0.3    -0.25    -0.25    -0.2    
-0.2    -0.15    -0.15    -0.1    -0.1    
-0.05    -0.05    0.0    -3.8163916471e-18    -0.45    
-0.5    -0.4    -0.35    -0.3    -0.25    
-0.2    -0.15    -0.1    -0.05    -2.0816681712e-18    
-0.45    -0.5    -0.4    -0.35    -0.3    
-0.25    -0.2    -0.15    -0.1    -0.05    
2.7755575616e-18    -0.45    -0.5    -0.4    -0.35    
-0.3    -0.25    -0.2    -0.15    -0.1    
-0.05    5.5511151231e-18    -0.45    -0.5    -0.4    
-0.35    -0.3    -0.25    -0.2    -0.15    
-0.1    -0.05    1.3877787808e-18    -0.45    -0.5    
-0.4    -0.35    -0.3    -0.25    -0.2    
-0.15    -0.1    -0.05    2.7755575616e-18    -0.45    
-0.5    -0.4    -0.35    -0.3    -0.25    
-0.2    -0.15    -0.1    -0.05    -5.5511151231e-18    
-0.45    -0.5    -0.4    -0.35    -0.3    
-0.25    -0.2    -0.15    -0.1    -0.05    
0.0    -0.45    -0.5    -0.4    -0.35    
-0.3    -0.25    -0.2    -0.15    -0.1    
-0.05    2.7755575616e-18    -0.45    -0.5    -0.4    
-0.35    -0.3    -0.25    -0.2    -0.15    
-0.1    -0.05    0.0    -0.45    -0.45    
-0.5    -0.5    -0.4    -0.4    -0.35    
-0.35    -0.3    -0.3    -0.25    -0.25    
-0.2    -0.2    -0.15    -0.15    -0.1    
-0.1    -0.05    -0.05    0.0    -1.9081958236e-18    
-0.45    -0.5    -0.4    -0.35    -0.3    
-0.25    -0.2    -0.15    -0.1    -0.05    
-1.0408340856e-18    -0.45    -0.5    -0.4    -0.35    
-0.3    -0.25    -0.2    -0.15    -0.1    
-0.05    1.3877787808e-18    -0.45    -0.5    -0.4    
-0.35    -0.3    -0.25    -0.2    -0.15    
-0.1    -0.05    2.7755575616e-18    -0.45    -0.5    
-0.4    -0.35    -0.3    -0.25    -0.2    
-0.15    -0.1    -0.05    6.9388939039e-19    -0.45    
-0.5    -0.4    -0.35    -0.3    -0.25    
-0.2    -0.15    -0.1    -0.05    1.3877787808e-18    
-0.45    -0.5    -0.4    -0.35    -0.3    
-0.25    -0.2    -0.15    -0.1    -0.05    
-2.7755575616e-18    -0.45    -0.5    -0.4    -0.35    
-0.3    -0.25    -0.2    -0.15    -0.1    
-0.05    0.0    -0.45    -0.5    -0.4    
-0.35    -0.3    -0.25    -0.2    -0.15    
-0.1    -0.05    1.3877787808e-18    -0.45    -0.5    
-0.4    -0.35    -0.3    -0.25    -0.2    
-0.15    -0.1    -0.05    0.0    -0.45    
-0.45    -0.5    -0.5    -0.4    -0.4    
-0.35    -0.35    -0.3    -0.3    -0.25    
-0.25    -0.2    -0.2    -0.15    -0.15    
-0.1    -0.1    -0.05    -0.05    0.0    
0.0    -0.45    -0.5    -0.4    -0.35    
-0.3    -0.25    -0.2    -0.15    -0.1    
-0.05    0.0    -0.45    -0.5    -0.4    
-0.35    -0.3    -0.25    -0.2    -0.15    
-0.1    -0.05    0.0    -0.45    -0.5    
-0.4    -0.35    -0.3    -0.25    -0.2    
-0.15    -0.1    -0.05    0.0    -0.45    
-0.5    -0.4    -0.35    -0.3    -0.25    
-0.2    -0.15    -0.1    -0.05    0.0    
-0.45    -0.5    -0.4    -0.35    -0.3    
-0.25    -0.2    -0.15    -0.1    -0.05    
0.0    -0.45    -0.5    -0.4    -0.35    
-0.3    -0.25    -0.2    -0.15    -0.1    
-0.05    0.0    -0.45    -0.5    -0.4    
-0.35    -0.3    -0.25    -0.2    -0.15    
-0.1    -0.05    0.0    -0.45    -0.5    
-0.4    -0.35    -0.3    -0.25    -0.2    
-0.15    -0.1    -0.05    0.0    -0.45    
-0.5    -0.4    -0.35    -0.3    -0.25    
-0.2    -0.15    -0.1    -0.05    0.0    
-0.5    
0.5    0.45    0.45    0.5    0.45    
0.45    0.5    0.5    0.45    0.45    
0.5    0.5    0.45    0.45    0.5    
0.5    0.45    0.45    0.5    0.5    
0.45    0.45    0.5    0.5    0.45    
0.45    0.5    0.5    0.45    0.45    
0.5    0.5    0.45    0.45    0.5    
0.5    0.45    0.45    0.5    0.5    
0.45    0.45    0.5    0.4    0.4    
0.4    0.4    0.4    0.4    0.4    
0.4    0.4    0.4    0.4    0.4    
0.4    0.4    0.4    0.4    0.4    
0.4    0.4    0.4    0.4    0.4    
0.35    0.35    0.35    0.35    0.35    
0.35    0.35    0.35    0.35    0.35    
0.35    0.35    0.35    0.35    0.35    
0.35    0.35    0.35    0.35    0.35    
0.35    0.35    0.3    0.3    0.3    
0.3    0.3    0.3    0.3    0.3    
0.3    0.3    0.3    0.3    0.3    
0.3    0.3    0.3    0.3    0.3    
0.3    0.3    0.3    0.3    0.25    
0.25    0.25    0.25    0.25    0.25    
0.25    0.25    0.25    0.25    0.25    
0.25    0.25    0.25    0.25    0.25    
0.25    0.25    0.25    0.25    0.25    
0.25    0.2    0.2    0.2    0.2    
0.2    0.2    0.2    0.2    0.2    
0.2    0.2    0.2    0.2    0.2    
0.2    0.2    0.2    0.2    0.2    
0.2    0.2    0.2    0.15    0.15    
0.15    0.15    0.15    0.15    0.15    
0.15    0.15    0.15    0.15    0.15    
0.15    0.15    0.15    0.15    0.15    
0.15    0.15    0.15    0.15    0.15    
0.1    0.1    0.1    0.1    0.1    
0.1    0.1    0.1    0.1    0.1    
0.1    0.1    0.1    0.1    0.1    
0.1    0.1    0.1    0.1    0.1    
0.1    0.1    0.05    0.05    0.05    
0.05    0.05    0.05    0.05    0.05    
0.05    0.05    0.05    0.05    0.05    
0.05    0.05    0.05    0.05    0.05    
0.05    0.05    0.05    0.05    0.0    
0.0    0.0    0.0    0.0    0.0    
0.0    0.0    0.0    0.0    0.0    
0.0    0.0    0.0    0.0    0.0    
0.0    0.0    0.0    0.0    0.0    
0.0    0.5    0.45    0.45    0.5    
0.5    0.45    0.5    0.45    0.5    
0.45    0.5    0.45    0.5    0.45    
0.5    0.45    0.5    0.45    0.5    
0.45    0.5    0.45    0.4    0.4    
0.4    0.4    0.4    0.4    0.4    
0.4    0.4    0.4    0.4    0.35    
0.35    0.35    0.35    0.35    0.35    
0.35    0.35    0.35    0.35    0.35    
0.3    0.3    0.3    0.3    0.3    
0.3    0.3    0.3    0.3    0.3    
0.3    0.25    0.25    0.25    0.25    
0.25    0.25    0.25    0.25    0.25    
0.25    0.25    0.2    0.2    0.2    
0.2    0.2    0.2    0.2    0.2    
0.2    0.2    0.2    0.15    0.15    
0.15    0.15    0.15    0.15    0.15    
0.15    0.15    0.15    0.15    0.1    
0.1    0.1    0.1    0.1    0.1    
0.1    0.1    0.1    0.1    0.1    
0.05    0.05    0.05    0.05    0.05    
0.05    0.05    0.05    0.05    0.05    
0.05    0.0    0.0    0.0    0.0    
0.0    0.0    0.0    0.0    0.0    
0.0    0.0    0.5    0.45    0.45    
0.5    0.5    0.45    0.5    0.45    
0.5    0.45    0.5    0.45    0.5    
0.45    0.5    0.45    0.5    0.45    
0.5    0.45    0.5    0.45    0.4    
0.4    0.4    0.4    0.4    0.4    
0.4    0.4    0.4    0.4    0.4    
0.35    0.35    0.35    0.35    0.35    
0.35    0.35    0.35    0.35    0.35    
0.35    0.3    0.3    0.3    0.3    
0.3    0.3    0.3    0.3    0.3    
0.3    0.3    0.25    0.25    0.25    
0.25    0.25    0.25    0.25    0.25    
0.25    0.25    0.25    0.2    0.2    
0.2    0.2    0.2    0.2    0.2    
0.2    0.2    0.2    0.2    0.15    
0.15    0.15    0.15    0.15    0.15    
0.15    0.15    0.15    0.15    0.15    
0.1    0.1    0.1    0.1    0.1    
0.1    0.1    0.1    0.1    0.1    
0.1    0.05    0.05    0.05    0.05    
0.05    0.05    0.05    0.05    0.05    
0.05    0.05    0.0    0.0    0.0    
0.0    0.0    0.0    0.0    0.0    
0.0    0.0    0.0    0.5    0.45    
0.45    0.5    0.5    0.45    0.5    
0.45    0.5    0.45    0.5    0.45    
0.5    0.45    0.5    0.45    0.5    
0.45    0.5    0.45    0.5    0.45    
0.4    0.4    0.4    0.4    0.4    
0.4    0.4    0.4    0.4    0.4    
0.4    0.35    0.35    0.35    0.35    
0.35    0.35    0.35    0.35    0.35    
0.35    0.35    0.3    0.3    0.3    
0.3    0.3    0.3    0.3    0.3    
0.3    0.3    0.3    0.25    0.25    
0.25    0.25    0.25    0.25    0.25    
0.25    0.25    0.25    0.25    0.2    
0.2    0.2    0.2    0.2    0.2    
0.2    0.2    0.2    0.2    0.2    
0.15    0.15    0.15    0.15    0.15    
0.15    0.15    0.15    0.15    0.15    
0.15    0.1    0.1    0.1    0.1    
0.1    0.1    0.1    0.1    0.1    
0.1    0.1    0.05    0.05    0.05    
0.05    0.05    0.05    0.05    0.05    
0.05    0.05    0.05    0.0    0.0    
0.0    0.0    0.0    0.0    0.0    
0.0    0.0    0.0    0.0    0.5    
0.45    0.45    0.5    0.5    0.45    
0.5    0.45    0.5    0.45    0.5    
0.45    0.5    0.45    0.5    0.45    
0.5    0.45    0.5    0.45    0.5    
0.45    0.4    0.4    0.4    0.4    
0.4    0.4    0.4    0.4    0.4    
0.4    0.4    0.35    0.35    0.35    
0.35    0.35    0.35    0.35    0.35    
0.35    0.35    0.35    0.3    0.3    
0.3    0.3    0.3    0.3    0.3    
0.3    0.3    0.3    0.3    0.25    
0.25    0.25    0.25    0.25    0.25    
0.25    0.25    0.25    0.25    0.25    
0.2    0.2    0.2    0.2    0.2    
0.2    0.2    0.2    0.2    0.2    
0.2    0.15    0.15    0.15    0.15    
0.15    0.15    0.15    0.15    0.15    
0.15    0.15    0.1    0.1    0.1    
0.1    0.1    0.1    0.1    0.1    
0.1    0.1    0.1    0.05    0.05    
0.05    0.05    0.05    0.05    0.05    
0.05    0.05    0.05    0.05    0.0    
0.0    0.0    0.0    -2.4651903288e-32    0.0    
0.0    2.4651903288e-32    0.0    0.0    0.0    
0.5    0.45    0.45    0.5    0.5    
0.45    0.5    0.45    0.5    0.45    
0.5    0.45    0.5    0.45    0.5    
0.45    0.5    0.45    0.5    0.45    
0.5    0.45    0.4    0.4    0.4    
0.4    0.4    0.4    0.4    0.4    
0.4    0.4    0.4    0.35    0.35    
0.35    0.35    0.35    0.35    0.35    
0.35    0.35    0.35    0.35    0.3    
0.3    0.3    0.3    0.3    0.3    
0.3    0.3    0.3    0.3    0.3    
0.25    0.25    0.25    0.25    0.25    
0.25    0.25    0.25    0.25    0.25    
0.25    0.2    0.2    0.2    0.2    
0.2    0.2    0.2    0.2    0.2    
0.2    0.2    0.15    0.15    0.15    
0.15    0.15    0.15    0.15    0.15    
0.15    0.15    0.15    0.1    0.1    
0.1    0.1    0.1    0.1    0.1    
0.1    0.1    0.1    0.1    0.05    
0.05    0.05    0.05    0.05    0.05    
0.05    0.05    0.05    0.05    0.05    
0.0    0.0    0.0    0.0    0.0    
0.0    0.0    0.0    0.0    0.0    
0.0    0.5    0.45    0.45    0.5    