Title = " tecplot file for 2D Cavity problem " 
variables = "x", "y", "z", "velX", "cellCentroidY" 
Zone T = "nmesh0" N = 72 E = 112 DATAPACKING = BLOCK, VARLOCATION = ([4-5]=CELLCENTERED), ZONETYPE=FETRIANGLE
0.95675970876    1.0    0.95688164945    1.0    0.95755698627    
1.0    0.95959377415    1.0    1.0    0.95945200039    
1.0    0.96732120107    0.91582097533    0.91359975372    0.91349616662    
0.91421551885    0.91629100111    0.92245638347    0.87066230274    0.87066024693    
0.86985479406    0.87026057149    0.87173328327    0.8740188815    0.82526906853    
0.87359766195    0.82608162102    0.82569617528    0.82706195114    0.8285477429    
0.82718982092    0.8287191441    0.78320791419    0.77998716233    0.78188085254    
0.78401043104    0.73121963088    0.78112107869    0.73540856209    0.73883927731    
0.78450765774    0.67312094014    0.61434151013    0.69489576235    0.78300081971    
0.68591149471    0.55884472011    0.64785825573    0.74192742165    0.73665249203    
0.70398345607    0.73926987841    0.52169417532    0.56796530247    0.59668872216    
0.62751779272    0.6592260919    0.54466024892    0.69702479356    0.69240131119    
0.68983364822    0.57249702702    0.60240505316    0.51753479009    0.64504433432    
0.64867709448    0.54224118495    0.59647001142    0.60152238429    0.5618446652    
0.51058041495    0.55169427507    
0.72009911714    0.7    0.66949183304    0.65    0.61844504415    
0.6    0.56783265302    0.55    0.45    0.48279214809    
0.5    0.52524828361    0.46683219811    0.74104570727    0.69028227669    
0.63842124284    0.58457816469    0.52565479765    0.44434380015    0.7630594134    
0.71247305247    0.6609412431    0.60810077634    0.5536017523    0.42114215162    
0.49881568546    0.7357980191    0.68457114667    0.63254850053    0.57985069778    
0.47386267257    0.52684794462    0.76097110423    0.70901105062    0.65682439085    
0.60527804061    0.73541287677    0.44980791583    0.67929764752    0.62923533916    
0.55356110881    0.73824985597    0.73897982284    0.69786106312    0.50182839444    
0.64719166416    0.76453172488    0.68999466862    0.57923162396    0.47810321985    
0.60227481054    0.52939615087    0.72695267365    0.71857375242    0.68200187547    
0.63665376955    0.59431737623    0.67830493031    0.55808573722    0.50752877441    
0.4547391069    0.63154185281    0.57897227315    0.63349850238    0.48528529386    
0.5407051787    0.58512439681    0.46129907557    0.51739590637    0.5425106701    
0.53507553622    0.49379788272    
0.0    0.0    0.0    0.0    0.0    
0.0    0.0    0.0    0.0    0.0    
0.0    0.0    0.0    0.0    0.0    
0.0    0.0    0.0    0.0    0.0    
0.0    0.0    0.0    0.0    0.0    
0.0    0.0    0.0    0.0    0.0    
0.0    0.0    0.0    0.0    0.0    
0.0    0.0    0.0    0.0    0.0    
0.0    0.0    0.0    0.0    0.0    
0.0    0.0    0.0    0.0    0.0    
0.0    0.0    0.0    0.0    0.0    
0.0    0.0    0.0    0.0    0.0    
0.0    0.0    0.0    0.0    0.0    
0.0    0.0    0.0    0.0    0.0    
0.0    0.0    
19.9163428241    39.4575125068    9.13221553978    16.0593020029    31.6960077128    
7.26309439801    12.7929512662    25.2268603476    5.51041437626    9.44082729893    
3.92442263394    8.16019803944    19.3087032112    3.38245316502    17.1977136987    
53.9815963326    43.60652573    74.0157320885    35.1699503555    59.7851580465    
27.5025785648    48.081700056    37.6882943735    21.8778715151    30.8085564062    
92.0190336558    74.7426010361    111.545363275    60.8813771859    90.9805658382    
49.3879930536    74.1299449637    39.398151253    60.368431468    49.6040681429    
33.2456412066    41.2626573374    108.450711846    89.078891256    124.170291918    
73.1318036266    101.97641177    60.0394892285    83.9706387831    49.751004207    
41.5740558705    48.4867154951    69.6224178831    143.478833988    118.913307069    
158.838594513    98.1941554802    130.651281749    81.4465965001    108.18110137    
58.1046380741    149.768355964    56.8151129857    123.427917812    158.040288091    
103.165364878    132.608261385    67.9012773227    90.1708378898    175.145349741    
146.440572066    173.810704508    63.776512226    75.9612671523    124.113764014    
156.19012821    187.432003232    181.784788085    86.6640304232    109.864194093    
151.200048197    73.1597131966    104.954509072    125.845126339    79.938212326    
94.2681864128    208.419694193    207.657745038    189.922371798    191.239229249    
161.992833263    181.381909939    156.576272323    135.757554518    112.740327955    
130.796023727    165.996143035    90.3169494338    76.2491880861    97.0246990078    
81.5732301133    109.115031989    139.709816537    160.002902269    116.738416876    
135.292119618    92.3451158291    97.0911296098    145.425052347    110.107994867    
123.553813543    90.8778326239    94.3483692079    113.107275255    119.290945045    
103.94959689    107.729938807    
0.696096168108    0.693664693482    0.673621043172    0.645496550564    0.642554949463    
0.623375049926    0.594942624852    0.590884427244    0.573286461272    0.547950270045    
0.476871019464    0.502458155871    0.540064497569    0.525048713053    0.510746451578    
0.716754166983    0.665652743739    0.714876234022    0.613273480248    0.663464507181    
0.558258409876    0.610540979871    0.554317904788    0.492892169161    0.497319286326    
0.7385224582    0.687613934728    0.737328872897    0.635563775473    0.68614587304    
0.581893659214    0.633935521086    0.526037443243    0.580445795644    0.526393147593    
0.47024302865    0.472343764203    0.710725371046    0.659242977502    0.709911254177    
0.606769583223    0.658031022976    0.553424297496    0.605868128186    0.499861386064    
0.446588488606    0.448212816349    0.553388209016    0.734957997235    0.683465086808    
0.735329969782    0.631576279288    0.681869988285    0.579562431061    0.630447208669    
0.500828841618    0.70806104649    0.475192961785    0.655166391964    0.705057170916    
0.604718155272    0.652040013938    0.527373864313    0.579338239311    0.724568964351    
0.673608622641    0.708835889059    0.476528411803    0.528226852282    0.627144679478    
0.677611223741    0.722589132734    0.704452769245    0.553932543558    0.60357873774    
0.657750528803    0.503076289698    0.579441709612    0.615344344105    0.504901232691    
0.555456287497    0.741401744472    0.737039603439    0.713373284337    0.707731562356    
0.669158510707    0.692462112731    0.650070592779    0.626454815015    0.584495959531    
0.603003407431    0.663656168893    0.531611857252    0.480192546782    0.535197070893    
0.482364566967    0.56450754699    0.61507775187    0.647624881498    0.571345690562    
0.598264987959    0.511413149119    0.514315501352    0.616731221211    0.546424120492    
0.569590532866    0.488003959038    0.490804987601    0.547134253077    0.554215505735    
0.517243695052    0.523488545069    
1     3     2     
3     1     15     
2     3     4     
4     3     5     
5     3     16     
4     5     6     
6     5     7     
7     5     17     
6     7     8     
8     7     12     
11     10     9     
10     11     12     
12     7     18     
8     12     11     
10     12     18     
15     1     14     
3     15     16     
15     14     21     
5     16     17     
16     15     22     
7     17     18     
17     16     23     
18     17     24     
10     18     13     
13     18     26     
21     14     20     
15     21     22     
21     20     27     
16     22     23     
22     21     28     
17     23     24     
23     22     29     
18     24     26     
24     23     30     
26     24     32     
13     26     19     
19     26     31     
21     27     28     
22     28     29     
28     27     34     
23     29     30     
29     28     35     
24     30     32     
30     29     36     
31     26     32     
19     31     25     
25     31     38     
32     30     41     
34     27     33     
28     34     35     
34     33     37     
29     35     36     
35     34     39     
30     36     41     
36     35     40     
31     32     45     
34     37     39     
38     31     45     
35     39     40     
39     37     44     
36     40     49     
40     39     46     
32     41     45     
41     36     49     
44     37     42     
39     44     46     
44     42     48     
38     45     50     
45     41     52     
40     46     51     
46     44     48     
43     48     42     
48     43     55     
41     49     52     
49     40     51     
46     48     56     
50     45     52     
49     51     59     
51     46     57     
50     52     60     
52     49     59     
47     54     43     
54     47     53     
43     54     55     
54     53     58     
48     55     56     
55     54     58     
56     55     62     
46     56     57     
51     57     59     
57     56     63     
55     58     62     
52     59     60     
50     60     61     
60     59     66     
61     60     65     
59     57     66     
56     62     63     
62     58     64     
57     63     66     
63     62     67     
65     60     66     
65     66     69     
62     64     67     
66     63     69     
63     67     70     
65     69     68     
68     69     72     
69     63     70     
70     67     71     
69     70     72     
70     71     72     

