Title = " tecplot file for 2D Cavity problem " 
variables = "x", "y", "z", "velX", "cellCentroidY" 
Zone T = "nmesh0" N = 74 E = 112 DATAPACKING = BLOCK, VARLOCATION = ([4-5]=CELLCENTERED),  ZONETYPE=FETRIANGLE 
0.25    0.27918417339    0.3    0.32987154002    0.35    
0.38077260587    0.4    0.56761657638    0.6    0.55    
0.43194375582    0.45    0.48257865397    0.5    0.52507673384    
0.52522490341    0.25768999056    0.30888281734    0.36030518618    0.41245481225    
0.46636757865    0.28735909426    0.33877361245    0.39065935698    0.44357612361    
0.26631645838    0.3169264893    0.36812645846    0.42002588822    0.4980530852    
0.47270392277    0.2511933642    0.21634824514    0.29510139011    0.34529000254    
0.39635736997    0.22032305362    0.22132052015    0.26682786721    0.44811466774    
0.50020610709    0.26452305333    0.26771250719    0.321449226    0.37224447136    
0.30207338081    0.31212385967    0.3470621132    0.527302952    0.57739139714    
0.47570647776    0.42364937364    0.31649861763    0.60001209999    0.55543546495    
0.50411884888    0.45164534644    0.39821088213    0.31433362026    0.5911167146    
0.36831459502    0.42805295981    0.48190607441    0.53403453919    0.36265881994    
0.41245726179    0.46300260783    0.51263934275    0.55641526584    0.35878475577    
0.40576697846    0.45337011442    0.49534090515    0.54470004714    
0.0    0.044276403983    0.0    0.044001432648    0.0    
0.043596310128    0.0    0.040486587209    0.0    0.0    
0.042750101602    0.0    0.040562825526    0.0    0.032738522826    
0.077612739054    0.088677574682    0.088088980433    0.087499787678    0.086465144918    
0.084115531867    0.13218098955    0.13155127065    0.1307208557    0.12908883673    
0.17587092392    0.17549646507    0.17512743302    0.17418630145    0.12633330032    
0.17248305254    0.21604052276    0.23832528611    0.21912803268    0.21928338163    
0.21934360192    0.28997196743    0.34245956561    0.26347638928    0.21817994343    
0.21652383965    0.31815531262    0.36975058489    0.26202612804    0.26449088231    
0.29903444147    0.34396675841    0.30877270069    0.26012190396    0.25868364144    
0.26206796087    0.26426585981    0.39558089953    0.2982976903    0.3031953365    
0.30489372621    0.30825562625    0.31189818455    0.44991134885    0.34712025081    
0.36419194497    0.35590734171    0.34987065498    0.34619273164    0.42477109513    
0.40619186935    0.3950189306    0.39025859801    0.38538349804    0.47978820868    
0.45877128618    0.44283363007    0.42892718502    0.43592965585    
0.0    0.0    0.0    0.0    0.0    
0.0    0.0    0.0    0.0    0.0    
0.0    0.0    0.0    0.0    0.0    
0.0    0.0    0.0    0.0    0.0    
0.0    0.0    0.0    0.0    0.0    
0.0    0.0    0.0    0.0    0.0    
0.0    0.0    0.0    0.0    0.0    
0.0    0.0    0.0    0.0    0.0    
0.0    0.0    0.0    0.0    0.0    
0.0    0.0    0.0    0.0    0.0    
0.0    0.0    0.0    0.0    0.0    
0.0    0.0    0.0    0.0    0.0    
0.0    0.0    0.0    0.0    0.0    
0.0    0.0    0.0    0.0    0.0    
0.0    0.0    0.0    0.0    
1.61116860244    3.36305970898    1.77350413157    6.78235410915    3.6454359859    
1.87521594796    7.32787816905    3.80411267157    1.70345527213    3.28574235866    
1.88942849021    7.61634516274    3.77192694995    1.7497001038    7.55245373596    
3.31790396333    6.86671497246    1.27228525173    6.93112031623    8.93642692358    
8.10421209726    11.4388021875    9.50530709549    12.5974705361    9.73893615781    
13.377018136    9.41710236372    13.6713197899    13.2842146744    13.9538812391    
15.0994280964    17.6363968611    15.8067443967    19.0917147538    15.9784582997    
19.9837665937    20.5318241209    18.6646964258    22.3945828629    21.8690156838    
24.6643851804    22.5693056284    26.3191644109    20.2400959973    27.1806917774    
25.7378960958    22.9533257605    26.7886491678    27.8970047232    29.9564355823    
29.2866862914    32.6470148658    27.7929516535    25.8584375049    33.0808928857    
30.6176904973    29.8259414665    34.3149393089    34.8946154716    35.0526986418    
41.3032094922    35.833146433    44.6851715946    33.8154857556    34.5773719863    
36.1634849923    38.7618997802    42.1021488845    39.3017757119    51.6161569523    
43.6236059331    43.1480213579    37.5243988739    37.3946958031    42.9652928346    
42.9625987024    41.7701926918    49.8258113162    54.7845364047    42.0831852986    
43.7061864101    45.48389655    49.5474701932    46.073876872    51.2200177958    
45.4865556153    52.0105233719    51.7238943305    49.720789858    53.73908529    
62.2985145464    54.5863621885    55.468571913    61.8483402378    55.01751839    
61.9743986652    61.3021337056    59.5915610463    65.7648047603    67.3107213066    
76.2073306484    65.9415428667    75.1977476508    65.3215914561    73.734035246    
63.8171045844    71.8493189459    71.4350460401    80.0724106073    78.3936860538    
76.1878151343    75.414731628    
0.0148537338012    0.0293887755788    0.0147430984742    0.0588091491041    0.0291986116876    
0.014580740044    0.0583556675601    0.0288376315527    0.013310549846    0.0245097225482    
0.0142392495887    0.057555144304    0.0278868491581    0.0133438870686    0.0557856051643    
0.0245273962766    0.0511306542913    0.0101868072806    0.0511674512224    0.073237148282    
0.0736838861987    0.10295398938    0.0726331766396    0.102332620041    0.0713724990062    
0.101465110699    0.0679704862997    0.0996788060723    0.0955461199675    0.117318671937    
0.116677189157    0.146350487065    0.115592206443    0.145734698232    0.113440129843    
0.144548956956    0.160760486263    0.161193970848    0.190144237541    0.160081738641    
0.189945671464    0.158689743123    0.189536857035    0.142437957033    0.188220876512    
0.204608935268    0.203387269617    0.233652729453    0.204583302177    0.233426665293    
0.203918299067    0.234454228792    0.263690605408    0.240491432054    0.290443855154    
0.248508044927    0.202415689256    0.233988638166    0.232225066039    0.316613829419    
0.343808974537    0.292656997601    0.343728225006    0.24862152819    0.274146140167    
0.249321036626    0.278544498382    0.321316933954    0.289994177008    0.370079631012    
0.317487349483    0.294946932562    0.246249586079    0.248181514136    0.275628441386    
0.278197427896    0.280478668612    0.339739618554    0.367887542219    0.274046158876    
0.286482411565    0.289440192896    0.317106497544    0.2918230972    0.317931099253    
0.294863736437    0.320847808839    0.325316851783    0.329190254978    0.332609917062    
0.394327921241    0.344416489459    0.338203392855    0.375217615719    0.333804720896    
0.36665117396    0.361896717298    0.35884575264    0.397626605315    0.423410032863    
0.451418614889    0.38563504945    0.430038026829    0.378369859023    0.414799475717    
0.373676476029    0.40431629425    0.404924097108    0.454124753941    0.435530064143    
0.42195686796    0.418604098363    
3     2     1     
2     3     4     
4     3     5     
2     4     18     
4     5     6     
6     5     7     
4     6     19     
6     7     11     
8     10     9     
10     8     15     
11     7     12     
6     11     20     
11     12     13     
13     12     14     
11     13     21     
13     14     15     
15     8     16     
10     15     14     
13     15     16     
18     4     19     
2     18     17     
17     18     22     
19     6     20     
18     19     23     
20     11     21     
19     20     24     
21     13     16     
20     21     25     
21     16     30     
22     18     23     
23     19     24     
22     23     27     
24     20     25     
23     24     28     
25     21     30     
24     25     29     
27     23     28     
22     27     26     
26     27     34     
28     24     29     
27     28     35     
29     25     31     
28     29     36     
25     30     31     
29     31     40     
34     27     35     
26     34     32     
32     34     39     
35     28     36     
34     35     44     
36     29     40     
35     36     45     
33     39     37     
39     33     32     
37     39     42     
39     34     44     
40     31     41     
36     40     52     
40     41     51     
37     42     38     
38     42     43     
42     39     46     
43     42     47     
44     35     45     
39     44     46     
45     36     52     
44     45     48     
42     46     47     
46     44     48     
43     47     53     
47     46     48     
48     45     58     
51     41     49     
40     51     52     
51     49     56     
52     51     57     
45     52     58     
47     48     61     
53     47     61     
50     55     49     
55     50     54     
49     55     56     
55     54     60     
51     56     57     
56     55     64     
52     57     58     
57     56     63     
58     57     62     
48     58     61     
55     60     64     
53     61     65     
61     58     62     
62     57     63     
61     62     66     
63     56     64     
62     63     67     
63     64     68     
64     60     69     
65     61     66     
53     65     59     
59     65     70     
66     62     67     
65     66     71     
67     63     68     
66     67     72     
68     64     69     
67     68     73     
68     69     74     
70     65     71     
71     66     72     
72     67     73     
73     68     74     

