Title = " tecplot file for 2D Cavity problem " 
variables = "x", "y", "z", "velX", "cellCentroidY" 
Zone T = "nmesh0" N = 72 E = 112 DATAPACKING = BLOCK, VARLOCATION = ([4-5]=CELLCENTERED),  ZONETYPE=FETRIANGLE 
0.0    0.03504530133    0.05    0.0    0.078096671084    
0.1    0.048268022474    0.0    0.12752369654    0.15    
0.042245433283    0.0    0.04241831434    0.17753942343    0.2    
0.22774931353    0.25    0.27787861171    0.3    0.32796034389    
0.35    0.3780940118    0.4    0.42905991008    0.10331483565    
0.081684468988    0.084751838976    0.084916035587    0.15408845178    0.20518086174    
0.25556438214    0.30579964368    0.35568297833    0.40509640655    0.45334364094    
0.12845695194    0.18270280881    0.23308688638    0.28377974538    0.33376921204    
0.38329865929    0.43176589433    0.12611980557    0.12779033    0.12893739516    
0.16363000955    0.21031392627    0.26246422251    0.31196318691    0.36179928454    
0.41183165372    0.16920478491    0.17129623122    0.17262957767    0.46126715131    
0.21254381113    0.24699709066    0.28993904335    0.33921499668    0.38982497711    
0.21579220113    0.21643033935    0.44267518442    0.26144809539    0.25830592947    
0.26132031436    0.31483349438    0.36482030429    0.29494419501    0.30359637981    
0.33823584214    0.41634090302    
1.0    0.96539781238    1.0    0.95    0.95914990173    
1.0    0.92004202369    0.9    0.9570043115    1.0    
0.86908016839    0.85    0.81999328527    0.95579066552    1.0    
0.95553021074    1.0    0.95551865514    1.0    0.95553839046    
1.0    0.95541730285    1.0    0.95479055731    0.91605535204    
0.8826597002    0.84001610811    0.7910908857    0.9118493462    0.91120236659    
0.9110453664    0.9112501119    0.91113186852    0.91083540554    0.90991212793    
0.86640559028    0.86741608604    0.8660578851    0.86722965201    0.86709419297    
0.86665362054    0.86644243609    0.81318735775    0.76331042916    0.71264101465    
0.83064183438    0.81759024848    0.82384444306    0.82359788089    0.822792688    
0.82212720435    0.78664275568    0.73638548494    0.68506575694    0.82300523501    
0.76184450265    0.78402729561    0.7807004308    0.77971905889    0.77810457249    
0.7104273209    0.65813657089    0.77773895974    0.73707260391    0.68318983012    
0.6323493072    0.73836094926    0.73478334833    0.70237467952    0.65883384528    
0.69293647421    0.73255140304    
0.0    0.0    0.0    0.0    0.0    
0.0    0.0    0.0    0.0    0.0    
0.0    0.0    0.0    0.0    0.0    
0.0    0.0    0.0    0.0    0.0    
0.0    0.0    0.0    0.0    0.0    
0.0    0.0    0.0    0.0    0.0    
0.0    0.0    0.0    0.0    0.0    
0.0    0.0    0.0    0.0    0.0    
0.0    0.0    0.0    0.0    0.0    
0.0    0.0    0.0    0.0    0.0    
0.0    0.0    0.0    0.0    0.0    
0.0    0.0    0.0    0.0    0.0    
0.0    0.0    0.0    0.0    0.0    
0.0    0.0    0.0    0.0    0.0    
0.0    0.0    
301.507943202    100.699277282    291.427105561    114.043562606    201.411007851    
354.617241642    331.254208273    55.0347999852    67.4792204972    270.074469737    
370.101643642    350.691727482    27.4437592713    118.897990966    42.6964042533    
83.0060190206    302.780060901    377.266858465    361.118464493    322.549717643    
381.559002717    367.457715361    334.745236509    384.238415637    371.432151999    
342.595995915    385.927733794    373.912266982    347.49808053    386.908498536    
375.169868132    350.36277269    209.844874798    266.415359249    171.315822823    
112.711811385    185.733475332    86.287463245    152.098749387    115.558362293    
295.396588883    221.887388047    313.768350035    259.241417513    325.325670702    
281.688320666    332.808380002    297.102766579    337.402315404    306.774534627    
339.568195434    312.747565641    315.952109999    225.827924072    147.556394573    
257.577980353    199.916551434    277.033976849    226.901020696    290.450016097    
251.29222783    298.913430264    265.958052407    304.157259898    275.360523956    
281.233809186    113.806471579    169.389776184    135.951207172    158.666239637    
204.967239637    228.063579639    179.932743758    248.512086547    208.220822973    
260.635462748    226.512818079    268.547955318    239.006695023    273.799574301    
247.21689926    131.386010842    110.661094275    108.030906053    148.725936715    
123.331808596    173.500220129    252.738681504    142.656645749    186.261158762    
210.607885958    175.586950719    223.793192194    189.723244549    233.91697164    
204.666765936    240.550771487    214.422677225    118.772937941    157.312184649    
130.373301435    221.172787199    149.216433755    187.941144973    124.346063166    
157.266416227    201.134515469    173.343012527    208.921673751    183.649968841    
172.295741147    157.171228918    
0.989015721143    0.972941510779    0.974720304201    0.943675494762    0.947700864165    
0.986573112361    0.971960764665    0.923657403571    0.896378381558    0.944147397508    
0.985688853999    0.970950549357    0.873539440687    0.891493452096    0.845892084352    
0.843417280401    0.94144906943    0.985182277013    0.970515984401    0.940755599057    
0.985072330007    0.970445077852    0.940602572342    0.985066963035    0.970451608875    
0.940686493539    0.985074898171    0.97041787849    0.940613057094    0.985023524176    
0.970136785785    0.940338047355    0.931244141767    0.928177377892    0.907154710063    
0.863224714025    0.887757396313    0.816655881675    0.863001496544    0.814984890389    
0.926281629851    0.89783042634    0.925995113124    0.896832402455    0.926017763056    
0.895975761323    0.926075472898    0.896465681832    0.925936994633    0.896410554887    
0.925404798455    0.896071915599    0.895547467374    0.881727446227    0.840019610629    
0.881622398163    0.85550744948    0.881495737116    0.849867623613    0.881930568138    
0.852449268119    0.881745336096    0.852611440034    0.881512930995    0.852075197909    
0.851518382879    0.788824228672    0.837710590608    0.787975179414    0.809430530183    
0.838275060525    0.835806570914    0.811513671605    0.838284582732    0.808943788396    
0.837890873203    0.809364250869    0.837267177765    0.808678158747    0.83730487887    
0.807586660323    0.761803064156    0.73766781706    0.711095980917    0.761746817741    
0.71074837829    0.788860832537    0.807415414518    0.735960140438    0.78878772079    
0.796529457939    0.75985650903    0.794729945609    0.766460065732    0.79353328189    
0.766330870719    0.792539215574    0.764184281262    0.684425413116    0.736610789286    
0.6840702542    0.762831757655    0.710431556287    0.751779937316    0.657642060336    
0.70835577058    0.750908294193    0.726640392396    0.74845038393    0.722014423637    
0.711230327741    0.684435920342    
1     2     3     
1     2     4     
2     3     5     
4     2     7     
2     5     7     
5     3     6     
5     6     9     
4     7     8     
8     7     11     
5     9     25     
9     6     10     
9     10     14     
8     11     12     
11     7     26     
12     11     13     
13     11     27     
9     14     29     
14     10     15     
14     15     16     
14     16     30     
16     15     17     
16     17     18     
16     18     31     
18     17     19     
18     19     20     
18     20     32     
20     19     21     
20     21     22     
20     22     33     
22     21     23     
22     23     24     
22     24     34     
7     5     25     
25     9     29     
7     25     26     
11     26     27     
26     25     36     
13     27     28     
27     26     36     
28     27     43     
29     14     30     
25     29     36     
30     16     31     
29     30     37     
31     18     32     
30     31     38     
32     20     33     
31     32     39     
33     22     34     
32     33     40     
34     24     35     
33     34     41     
34     35     42     
36     29     37     
27     36     43     
37     30     38     
36     37     46     
38     31     39     
37     38     47     
39     32     40     
38     39     48     
40     33     41     
39     40     49     
41     34     42     
40     41     50     
41     42     51     
28     43     44     
43     36     46     
44     43     52     
43     46     52     
46     37     47     
47     38     48     
46     47     52     
48     39     49     
47     48     57     
49     40     50     
48     49     58     
50     41     51     
49     50     59     
51     42     55     
50     51     60     
44     52     53     
45     53     44     
45     53     54     
53     52     56     
54     53     61     
52     47     56     
51     55     63     
53     56     61     
56     47     57     
57     48     58     
56     57     64     
58     49     59     
57     58     64     
59     50     60     
58     59     67     
60     51     63     
59     60     68     
54     61     62     
61     56     64     
62     61     65     
60     63     72     
61     64     65     
64     58     67     
62     65     66     
65     64     69     
67     59     68     
64     67     69     
68     60     72     
67     68     71     
69     67     71     
69     71     70     

