Title = " tecplot file for 2D Cavity problem " 
variables = "x", "y", "z", "velX", "cellCentroidY" 
Zone T = "nmesh0" N = 72 E = 112 DATAPACKING = BLOCK, VARLOCATION = ([4-5]=CELLCENTERED), ZONETYPE=FETRIANGLE
0.95675970876    1.0    0.95688164945    1.0    0.95755698627    
1.0    0.95959377415    1.0    1.0    0.95945200039    
1.0    0.96732120107    0.91582097533    0.91359975372    0.91349616662    
0.91421551885    0.91629100111    0.92245638347    0.87066230274    0.87066024693    
0.86985479406    0.87026057149    0.87173328327    0.8740188815    0.82526906853    
0.87359766195    0.82608162102    0.82569617528    0.82706195114    0.8285477429    
0.82718982092    0.8287191441    0.78320791419    0.77998716233    0.78188085254    
0.78401043104    0.73121963088    0.78112107869    0.73540856209    0.73883927731    
0.78450765774    0.67312094014    0.61434151013    0.69489576235    0.78300081971    
0.68591149471    0.55884472011    0.64785825573    0.74192742165    0.73665249203    
0.70398345607    0.73926987841    0.52169417532    0.56796530247    0.59668872216    
0.62751779272    0.6592260919    0.54466024892    0.69702479356    0.69240131119    
0.68983364822    0.57249702702    0.60240505316    0.51753479009    0.64504433432    
0.64867709448    0.54224118495    0.59647001142    0.60152238429    0.5618446652    
0.51058041495    0.55169427507    
0.72009911714    0.7    0.66949183304    0.65    0.61844504415    
0.6    0.56783265302    0.55    0.45    0.48279214809    
0.5    0.52524828361    0.46683219811    0.74104570727    0.69028227669    
0.63842124284    0.58457816469    0.52565479765    0.44434380015    0.7630594134    
0.71247305247    0.6609412431    0.60810077634    0.5536017523    0.42114215162    
0.49881568546    0.7357980191    0.68457114667    0.63254850053    0.57985069778    
0.47386267257    0.52684794462    0.76097110423    0.70901105062    0.65682439085    
0.60527804061    0.73541287677    0.44980791583    0.67929764752    0.62923533916    
0.55356110881    0.73824985597    0.73897982284    0.69786106312    0.50182839444    
0.64719166416    0.76453172488    0.68999466862    0.57923162396    0.47810321985    
0.60227481054    0.52939615087    0.72695267365    0.71857375242    0.68200187547    
0.63665376955    0.59431737623    0.67830493031    0.55808573722    0.50752877441    
0.4547391069    0.63154185281    0.57897227315    0.63349850238    0.48528529386    
0.5407051787    0.58512439681    0.46129907557    0.51739590637    0.5425106701    
0.53507553622    0.49379788272    
0.0    0.0    0.0    0.0    0.0    
0.0    0.0    0.0    0.0    0.0    
0.0    0.0    0.0    0.0    0.0    
0.0    0.0    0.0    0.0    0.0    
0.0    0.0    0.0    0.0    0.0    
0.0    0.0    0.0    0.0    0.0    
0.0    0.0    0.0    0.0    0.0    
0.0    0.0    0.0    0.0    0.0    
0.0    0.0    0.0    0.0    0.0    
0.0    0.0    0.0    0.0    0.0    
0.0    0.0    0.0    0.0    0.0    
0.0    0.0    0.0    0.0    0.0    
0.0    0.0    0.0    0.0    0.0    
0.0    0.0    0.0    0.0    0.0    
0.0    0.0    
19.91634281    9.13221553249    16.0593019879    7.2630943905    12.7929512506    
5.51041436902    3.92442262524    9.4408272848    3.3824531616    8.16019802481    
39.4575124789    53.9815962988    31.6960076831    43.6065256937    25.2268603163    
35.1699503163    19.3087031799    27.5025785232    17.1977136647    21.8778714643    
74.0157320424    92.0190336059    59.7851579968    74.7426009818    48.081700002    
60.8813771266    37.6882943141    49.3879929879    39.3981511751    30.8085563329    
33.245641118    111.545363215    90.9805657733    108.450711779    74.1299448918    
89.0788911827    60.3684313858    73.1318035423    41.2626572285    41.5740557456    
49.6040680462    60.0394891306    124.170291845    143.478833917    101.976411688    
118.913306989    83.9706386845    98.1941553864    49.7510040951    158.838594436    
48.486715341    130.651281667    149.768355888    108.181101267    123.427917721    
69.6224177647    81.4465963816    158.040288027    175.145349692    56.8151128188    
58.104637937    67.9012771839    132.608261297    146.440572    187.432003201    
173.810704506    90.1708377505    103.165364755    156.190128163    63.7765120361    
109.864193957    124.113763906    75.9612669911    73.1597130099    86.6640302659    
208.419694151    207.657744995    181.784788062    189.922371778    161.99283322    
151.200048137    125.845126221    135.757554415    191.239229211    181.381909918    
94.2681862485    104.954508923    79.938212128    90.3169492501    76.2491878661    
112.740327807    156.576272274    165.996143004    130.796023612    139.709816443    
81.5732298964    97.024698826    92.3451156319    160.002902183    109.11503183    
116.73841673    135.292119485    145.425052213    97.0911294244    90.8778324347    
110.107994702    123.55381338    113.107275086    119.290944876    94.3483690331    
103.949596728    107.729938638    
0.696096168108    0.673621043172    0.645496550564    0.623375049926    0.594942624852    
0.573286461272    0.476871019464    0.547950270045    0.525048713053    0.502458155871    
0.693664693482    0.716754166983    0.642554949463    0.665652743739    0.590884427244    
0.613273480248    0.540064497569    0.558258409876    0.510746451578    0.492892169161    
0.714876234022    0.7385224582    0.663464507181    0.687613934728    0.610540979871    
0.635563775473    0.554317904788    0.581893659214    0.526037443243    0.497319286326    
0.47024302865    0.737328872897    0.68614587304    0.710725371046    0.633935521086    
0.659242977502    0.580445795644    0.606769583223    0.472343764203    0.446588488606    
0.526393147593    0.553424297496    0.709911254177    0.734957997235    0.658031022976    
0.683465086808    0.605868128186    0.631576279288    0.499861386064    0.735329969782    
0.448212816349    0.681869988285    0.70806104649    0.630447208669    0.655166391964    
0.553388209016    0.579562431061    0.705057170916    0.724568964351    0.475192961785    
0.500828841618    0.527373864313    0.652040013938    0.673608622641    0.722589132734    
0.708835889059    0.579338239311    0.604718155272    0.677611223741    0.476528411803    
0.60357873774    0.627144679478    0.528226852282    0.503076289698    0.553932543558    
0.741401744472    0.737039603439    0.704452769245    0.713373284337    0.669158510707    
0.657750528803    0.615344344105    0.626454815015    0.707731562356    0.692462112731    
0.555456287497    0.579441709612    0.504901232691    0.531611857252    0.480192546782    
0.584495959531    0.650070592779    0.663656168893    0.603003407431    0.61507775187    
0.482364566967    0.535197070893    0.511413149119    0.647624881498    0.56450754699    
0.571345690562    0.598264987959    0.616731221211    0.514315501352    0.488003959038    
0.546424120492    0.569590532866    0.547134253077    0.554215505735    0.490804987601    
0.517243695052    0.523488545069    
1     3     2     
2     3     4     
4     3     5     
4     5     6     
6     5     7     
6     7     8     
11     10     9     
8     7     12     
8     12     11     
10     11     12     
3     1     15     
15     1     14     
5     3     16     
3     15     16     
7     5     17     
5     16     17     
12     7     18     
7     17     18     
10     12     18     
10     18     13     
15     14     21     
21     14     20     
16     15     22     
15     21     22     
17     16     23     
16     22     23     
18     17     24     
17     23     24     
18     24     26     
13     18     26     
13     26     19     
21     20     27     
22     21     28     
21     27     28     
23     22     29     
22     28     29     
24     23     30     
23     29     30     
19     26     31     
19     31     25     
26     24     32     
24     30     32     
28     27     34     
34     27     33     
29     28     35     
28     34     35     
30     29     36     
29     35     36     
31     26     32     
34     33     37     
25     31     38     
35     34     39     
34     37     39     
36     35     40     
35     39     40     
32     30     41     
30     36     41     
39     37     44     
44     37     42     
38     31     45     
31     32     45     
32     41     45     
40     39     46     
39     44     46     
43     48     42     
44     42     48     
41     36     49     
36     40     49     
46     44     48     
38     45     50     
49     40     51     
40     46     51     
45     41     52     
50     45     52     
41     49     52     
47     54     43     
54     47     53     
48     43     55     
43     54     55     
48     55     56     
46     48     56     
51     46     57     
46     56     57     
54     53     58     
55     54     58     
52     49     59     
49     51     59     
50     52     60     
52     59     60     
50     60     61     
51     57     59     
56     55     62     
55     58     62     
57     56     63     
56     62     63     
61     60     65     
60     59     66     
65     60     66     
62     58     64     
59     57     66     
57     63     66     
63     62     67     
62     64     67     
65     66     69     
65     69     68     
66     63     69     
63     67     70     
69     63     70     
70     67     71     
68     69     72     
69     70     72     
70     71     72     

