Title = " tecplot file for 2D Cavity problem " 
variables = "x", "y", "z", "velX", "cellCentroidY" 
Zone T = "nmesh0" N = 72 E = 112 DATAPACKING = BLOCK, VARLOCATION = ([4-5]=CELLCENTERED), ZONETYPE=FETRIANGLE
0.0    0.03504530133    0.05    0.0    0.078096671084    
0.1    0.048268022474    0.0    0.12752369654    0.15    
0.042245433283    0.0    0.04241831434    0.0    0.17753942343    
0.2    0.22774931353    0.25    0.04270475216    0.0    
0.27787861171    0.3    0.043026117559    0.0    0.043125596187    
0.0    0.042696040807    0.0    0.040827231248    0.0    
0.041038258844    0.0    0.033089394567    0.10331483565    0.081684468988    
0.084751838976    0.084916035587    0.085667409436    0.086151090677    0.085997155059    
0.084433994566    0.078494046162    0.15408845178    0.20518086174    0.25556438214    
0.12845695194    0.18270280881    0.23308688638    0.28377974538    0.12611980557    
0.12779033    0.12893739516    0.12941920731    0.12900861688    0.12744562348    
0.16363000955    0.21031392627    0.26246422251    0.16920478491    0.17129623122    
0.17262957767    0.17311119158    0.17324890933    0.21254381113    0.24699709066    
0.28993904335    0.21579220113    0.21643033935    0.21775273626    0.26144809539    
0.25830592947    0.26132031436    
1.0    0.96539781238    1.0    0.95    0.95914990173    
1.0    0.92004202369    0.9    0.9570043115    1.0    
0.86908016839    0.85    0.81999328527    0.8    0.95579066552    
1.0    0.95553021074    1.0    0.77025840101    0.75    
0.95551865514    1.0    0.72005057543    0.7    0.66937863599    
0.65    0.61828263871    0.6    0.56764431838    0.55    
0.48258028307    0.5    0.52509173794    0.91605535204    0.8826597002    
0.84001610811    0.7910908857    0.74109133403    0.69021297095    0.63822857773    
0.58428543544    0.5252821822    0.9118493462    0.91120236659    0.9110453664    
0.86640559028    0.86741608604    0.8660578851    0.86722965201    0.81318735775    
0.76331042916    0.71264101465    0.66092504522    0.60787808336    0.5531581276    
0.83064183438    0.81759024848    0.82384444306    0.78664275568    0.73638548494    
0.68506575694    0.63274633618    0.57967193997    0.76184450265    0.78402729561    
0.7807004308    0.7104273209    0.65813657089    0.60598699997    0.73707260391    
0.68318983012    0.6323493072    
0.0    0.0    0.0    0.0    0.0    
0.0    0.0    0.0    0.0    0.0    
0.0    0.0    0.0    0.0    0.0    
0.0    0.0    0.0    0.0    0.0    
0.0    0.0    0.0    0.0    0.0    
0.0    0.0    0.0    0.0    0.0    
0.0    0.0    0.0    0.0    0.0    
0.0    0.0    0.0    0.0    0.0    
0.0    0.0    0.0    0.0    0.0    
0.0    0.0    0.0    0.0    0.0    
0.0    0.0    0.0    0.0    0.0    
0.0    0.0    0.0    0.0    0.0    
0.0    0.0    0.0    0.0    0.0    
0.0    0.0    0.0    0.0    0.0    
0.0    0.0    
301.507943203    100.699277282    291.427105562    114.043562606    201.411007853    
354.617241643    331.254208278    55.034799985    67.4792204958    270.074469745    
370.101643646    350.691727496    27.4437592682    118.897990965    42.6964042394    
18.8424053168    83.0060190005    31.7904652789    302.780060928    377.266858476    
361.118464524    322.549717703    381.559002737    367.457715403    14.2996214726    
62.3575736387    24.8580332053    334.745236599    384.238415657    11.3483321263    
49.0227586997    19.9271832612    9.15447750498    39.3767027496    16.1119482187    
7.34076788255    31.8249278922    12.8580653009    5.59735201035    25.4638797492    
9.48100304898    3.44284331003    19.5241773628    8.20596241511    17.3707345706    
209.844874802    266.415359267    171.315822825    112.711811379    185.733475336    
86.2874632057    152.098749379    67.2468025912    115.558362246    53.8520107891    
91.3661671142    43.6607636687    73.6211835124    35.3487677572    59.8033930019    
27.7121775679    48.3975264437    38.08677623    295.396588933    221.887388063    
313.768350134    259.241417567    281.688320774    225.827924102    147.556394557    
257.577980433    199.916551456    277.033977    226.901020781    251.292228004    
113.806471519    169.389776181    91.5858762983    135.951207125    74.6335545311    
110.661094208    61.0711509696    90.6832306711    49.7351619224    74.4326375595    
60.9596941502    158.666239624    204.967239679    228.063579787    179.932743773    
208.220823107    131.386010809    108.030906002    148.725936723    89.1623460921    
123.331808574    73.6042129742    102.122783856    84.8275664819    173.500220174    
142.65664577    186.261158848    210.607886125    175.586950798    189.723244664    
118.77293797    157.312184694    98.8076460233    130.373301454    109.451594775    
149.216433776    124.346063257    
0.989015721143    0.972941510779    0.974720304201    0.943675494762    0.947700864165    
0.986573112361    0.971960764665    0.923657403571    0.896378381558    0.944147397508    
0.985688853999    0.970950549357    0.873539440687    0.891493452096    0.845892084352    
0.823762847614    0.843417280401    0.796317176722    0.94144906943    0.985182277013    
0.970515984401    0.940755599057    0.985072330007    0.970445077852    0.77382287018    
0.79414805859    0.746333894216    0.940602572342    0.985066963035    0.723763980843    
0.744171472748    0.696015835677    0.673592263758    0.693608707124    0.645377408383    
0.623326836287    0.642420398001    0.594807742275    0.573226385352    0.590678208175    
0.547827924798    0.525018218297    0.539788159849    0.502308241274    0.51053810093    
0.931244141767    0.928177377892    0.907154710063    0.863224714025    0.887757396313    
0.816655881675    0.863001496544    0.767068150841    0.814984890389    0.716697344627    
0.765459412982    0.665480831063    0.714946923623    0.613016367785    0.663407834242    
0.557961850534    0.610337758863    0.553973496956    0.926281629851    0.89783042634    
0.925995113124    0.896832402455    0.895975761323    0.881727446227    0.840019610629    
0.881622398163    0.85550744948    0.881495737116    0.849867623613    0.852449268119    
0.788824228672    0.837710590608    0.738656278767    0.787975179414    0.687580976812    
0.73766781706    0.635346294295    0.686398350228    0.581520312735    0.633971838983    
0.580200639244    0.809430530183    0.838275060525    0.835806570914    0.811513671605    
0.808943788396    0.761803064156    0.711095980917    0.761746817741    0.659360044146    
0.71074837829    0.606604000161    0.65875445565    0.606164900008    0.788860832537    
0.735960140438    0.78878772079    0.796529457939    0.75985650903    0.766460065732    
0.684425413116    0.736610789286    0.632133457633    0.6840702542    0.632228432637    
0.710431556287    0.657642060336    
1     2     3     
2     1     4     
3     2     5     
2     4     7     
5     2     7     
3     5     6     
6     5     9     
7     4     8     
7     8     11     
9     5     34     
6     9     10     
10     9     15     
11     8     12     
7     11     35     
11     12     13     
13     12     14     
11     13     36     
13     14     19     
15     9     43     
10     15     16     
16     15     17     
17     15     44     
16     17     18     
18     17     21     
19     14     20     
13     19     37     
19     20     23     
21     17     45     
18     21     22     
23     20     24     
19     23     38     
23     24     25     
25     24     26     
23     25     39     
25     26     27     
27     26     28     
25     27     40     
27     28     29     
29     28     30     
27     29     41     
29     30     33     
33     30     32     
29     33     42     
33     32     31     
33     31     42     
5     7     34     
9     34     43     
34     7     35     
35     11     36     
34     35     46     
36     13     37     
35     36     46     
37     19     38     
36     37     50     
38     23     39     
37     38     51     
39     25     40     
38     39     52     
40     27     41     
39     40     53     
41     29     42     
40     41     54     
41     42     55     
15     43     44     
43     34     46     
17     44     45     
44     43     47     
45     44     48     
43     46     47     
46     36     50     
44     47     48     
47     46     56     
45     48     49     
48     47     57     
49     48     58     
50     37     51     
46     50     56     
51     38     52     
50     51     59     
52     39     53     
51     52     60     
53     40     54     
52     53     61     
54     41     55     
53     54     62     
54     55     63     
56     50     59     
47     56     57     
48     57     58     
57     56     59     
58     57     65     
59     51     60     
60     52     61     
59     60     64     
61     53     62     
60     61     67     
62     54     63     
61     62     68     
62     63     69     
57     59     64     
64     60     67     
57     64     65     
58     65     66     
65     64     70     
66     65     70     
67     61     68     
64     67     70     
68     62     69     
67     68     71     
68     69     72     
70     67     71     
71     68     72     

