Title = " tecplot file for 2D Cavity problem " 
variables = "x", "y", "z", "velX", "cellCentroidY" 
Zone T = "nmesh0" N = 74 E = 112 DATAPACKING = BLOCK, VARLOCATION = ([4-5]=CELLCENTERED), ZONETYPE=FETRIANGLE
0.77006876794    0.8    0.75    0.71989229368    0.7    
0.66926876975    0.65    0.61821894362    0.6    0.56761657638    
0.55    0.45    0.48257865397    0.5    0.52507673384    
0.79064013388    0.74064045872    0.68983004436    0.63794983483    0.58411329204    
0.52522490341    0.7624554153    0.71177776831    0.66019440423    0.60734657527    
0.55285353766    0.4980530852    0.73484408151    0.68351264827    0.63146848902    
0.57877398036    0.47270392277    0.52573377836    0.70760517349    0.65538816944    
0.6038501004    0.73359270097    0.50020610709    0.55208966062    0.67757037868    
0.62747862208    0.6960322427    0.64568595357    0.68950251933    0.57739139714    
0.527302952    0.47570647776    0.60001209999    0.55543546495    0.50411884888    
0.45164534644    0.68849932245    0.68983364822    0.64161186627    0.5911167146    
0.42805295981    0.48190607441    0.53403453919    0.64271299661    0.595851633    
0.64504433432    0.46300260783    0.51263934275    0.55641526584    0.59647001142    
0.45337011442    0.49534090515    0.54470004714    0.44744144141    0.4990264969    
0.55169427507    0.51058041495    0.45106460202    0.47769451169    
0.04314350572    0.0    0.0    0.043349154299    0.0    
0.043233752164    0.0    0.042552465016    0.0    0.040486587209    
0.0    0.0    0.040562825526    0.0    0.032738522826    
0.085925316644    0.086566986629    0.0866850808    0.085978048808    0.083867418262    
0.077612739054    0.12950358558    0.13030639258    0.1299617757    0.1284987352    
0.12610367492    0.12633330032    0.17392028402    0.17442665089    0.1732248109    
0.17167019475    0.17248305254    0.17121780781    0.2197242833    0.21836628012    
0.21643092704    0.26735984044    0.21652383965    0.21553519007    0.26442256197    
0.26198678121    0.30338240521    0.31505163276    0.34901881741    0.25868364144    
0.26012190396    0.26206796087    0.2982976903    0.3031953365    0.30489372621    
0.30825562625    0.40145142052    0.4547391069    0.37416303061    0.34712025081    
0.35590734171    0.34987065498    0.34619273164    0.43038869951    0.40589474501    
0.48528529386    0.3950189306    0.39025859801    0.38538349804    0.46129907557    
0.44283363007    0.42892718502    0.43592965585    0.49016456785    0.47644982963    
0.49379788272    0.53507553622    0.5431305004    0.51161072661    
0.0    0.0    0.0    0.0    0.0    
0.0    0.0    0.0    0.0    0.0    
0.0    0.0    0.0    0.0    0.0    
0.0    0.0    0.0    0.0    0.0    
0.0    0.0    0.0    0.0    0.0    
0.0    0.0    0.0    0.0    0.0    
0.0    0.0    0.0    0.0    0.0    
0.0    0.0    0.0    0.0    0.0    
0.0    0.0    0.0    0.0    0.0    
0.0    0.0    0.0    0.0    0.0    
0.0    0.0    0.0    0.0    0.0    
0.0    0.0    0.0    0.0    0.0    
0.0    0.0    0.0    0.0    0.0    
0.0    0.0    0.0    0.0    0.0    
0.0    0.0    0.0    0.0    
1.33483632116    2.91958071097    5.86814391681    1.55397507999    3.3017156793    
6.625485784    1.71430656559    3.5667351202    7.12964058942    1.78653283322    
3.64261333176    7.28508644325    1.70345526784    3.2857423586    1.74970012999    
3.31790400603    6.86671498234    1.27228526264    6.93112039675    6.85905474211    
7.94012034092    9.6813061481    8.77850508554    11.2094991996    9.29185946304    
12.3623072606    9.26161209478    13.0393846806    13.0753944211    12.1468539587    
13.7288516458    15.3825575109    14.8748497859    17.3997917388    15.5027635519    
18.8013484939    15.4849028607    19.618628557    20.0574077912    18.361929159    
20.2922185336    22.1703404899    21.5795849207    24.4386227372    22.2545832381    
25.9317764258    22.5950235783    27.3016782726    26.8446331022    25.5761706395    
27.5955901842    30.0164038426    28.8903140583    32.2952538007    29.6269995625    
34.6155560728    33.633210068    30.889880976    33.6934911025    35.17837403    
35.5439132025    39.452139533    40.3541281901    42.6234697939    44.932376603    
36.7718490198    40.3308031065    37.5243990697    42.0831849212    42.9652931089    
51.0274447535    43.7061858133    49.1344386543    45.4838964847    49.5474695895    
46.0738775604    51.2200178513    52.0105241725    55.6208017683    63.2943852587    
53.1403552689    61.1641147297    53.7390850055    55.0175188414    55.4685730501    
61.9743998921    61.3021342064    59.5915608979    67.7959083882    76.8998442708    
66.2895838454    63.2329612714    75.2483444757    80.8007707546    65.3215923385    
63.8171047516    71.8493197243    72.0979871811    71.4350462351    77.7589591329    
75.4147320082    76.1878160996    84.4569842735    87.0978673438    83.7603130887    
90.0499699403    97.3582234473    89.6015066447    102.55229168    104.494664836    
111.302259071    100.903313716    
0.0143855846566    0.0288322803906    0.0576870392791    0.0144724967008    0.0288842053086    
0.057736135932    0.0144292854677    0.0286674644651    0.0571934622128    0.0141556439797    
0.0278071832962    0.0555989494658    0.013310549846    0.0245097225482    0.0133438870686    
0.0245273962766    0.0511306542913    0.0101868072806    0.0511674512224    0.0718878175368    
0.0722460331027    0.100663770963    0.0720871837795    0.101167004865    0.0710744689225    
0.100782524885    0.0678756025335    0.0992207842347    0.0953758698734    0.115502981365    
0.115738390793    0.144585820747    0.114994832732    0.144872534612    0.113101256752    
0.143756911529    0.109919531682    0.141860238723    0.141020224714    0.159598171173    
0.159294760923    0.189449409455    0.157929864217    0.188633610459    0.156379307208    
0.186974074234    0.156711547046    0.186638742173    0.185991144353    0.204217966399    
0.202710826351    0.234201108429    0.201254436601    0.232260638993    0.201103589996    
0.230658875385    0.230044412138    0.250695402797    0.248128803959    0.27772753598    
0.245670724295    0.281313986969    0.294621099976    0.291858716399    0.322583305457    
0.24474319551    0.272574991794    0.246249586079    0.274046158876    0.275628441386    
0.345920502318    0.286482411565    0.321162598602    0.289440192896    0.317106497544    
0.2918230972    0.317931099253    0.320847808839    0.374886966693    0.401997085533    
0.344955586107    0.375600984302    0.332609917062    0.333804720896    0.338203392855    
0.36665117396    0.361896717298    0.35884575264    0.428767904553    0.45691204821    
0.403228248332    0.378575398844    0.432767104439    0.458870001357    0.378369859023    
0.373676476029    0.40431629425    0.410276187376    0.404924097108    0.434254522183    
0.418604098363    0.42195686796    0.450339979347    0.463491616553    0.447667191243    
0.469721250309    0.491613074717    0.468261060245    0.507374583556    0.515567440015    
0.531194500085    0.50207833053    
1     3     2     
3     1     4     
4     1     17     
3     4     5     
5     4     6     
6     4     18     
5     6     7     
7     6     8     
8     6     19     
7     8     9     
9     8     10     
10     8     20     
9     10     11     
11     10     15     
14     13     12     
13     14     15     
15     10     21     
11     15     14     
13     15     21     
17     1     16     
4     17     18     
17     16     22     
6     18     19     
18     17     23     
8     19     20     
19     18     24     
10     20     21     
20     19     25     
21     20     26     
17     22     23     
18     23     24     
23     22     28     
19     24     25     
24     23     29     
20     25     26     
25     24     30     
21     26     27     
26     25     31     
27     26     33     
23     28     29     
24     29     30     
29     28     34     
25     30     31     
30     29     35     
26     31     33     
31     30     36     
27     33     32     
32     33     38     
33     31     39     
29     34     35     
30     35     36     
35     34     40     
31     36     39     
36     35     41     
38     33     39     
38     39     46     
39     36     45     
40     34     37     
35     40     41     
40     37     42     
36     41     45     
41     40     43     
40     42     43     
41     43     48     
43     42     44     
39     45     46     
45     41     48     
38     46     47     
46     45     49     
47     46     50     
43     44     54     
45     48     49     
48     43     55     
46     49     50     
49     48     55     
47     50     51     
50     49     58     
51     50     57     
52     54     44     
54     52     59     
43     54     55     
55     54     60     
49     55     58     
57     50     58     
51     57     56     
56     57     62     
57     58     63     
58     55     64     
53     59     52     
59     53     61     
54     59     60     
55     60     64     
60     59     65     
59     61     65     
62     57     63     
63     58     64     
62     63     67     
64     60     68     
63     64     68     
60     65     68     
67     63     68     
62     67     66     
66     67     70     
68     65     71     
67     68     70     
66     70     69     
69     70     74     
68     71     70     
74     70     72     
69     74     73     
73     74     72     
70     71     72     

