Title = " tecplot file for 2D Cavity problem " 
variables = "x", "y", "z", "velX", "cellCentroidY" 
Zone T = "nmesh0" N = 71 E = 111 DATAPACKING = BLOCK, VARLOCATION = ([4-5]=CELLCENTERED), ZONETYPE=FETRIANGLE
1.0    0.9649024825    1.0    0.95    0.95155322615    
1.0    0.92177911433    0.9    0.95749200678    1.0    
0.87226824393    0.85    0.9572484407    1.0    0.82219618312    
0.8    0.95696372984    1.0    0.77199475402    0.75    
0.72195093401    0.7    0.95675970876    1.0    0.67197150816    
0.65    0.62193949298    0.6    0.57236329358    0.55    
0.52831468118    0.89627773688    0.91782156923    0.91455680685    0.91426123614    
0.91359975372    0.84526518899    0.79400903185    0.74361496428    0.69356203423    
0.64373910321    0.59286509504    0.53807151633    0.87057486204    0.81583309813    
0.76505094353    0.71431985769    0.6649602505    0.61677039554    0.56805308825    
0.87249847607    0.87066024693    0.83452260875    0.52340883677    0.78675489866    
0.73380082327    0.68391918853    0.63574362176    0.59322958088    0.82830603574    
0.82608162102    0.54938968204    0.78320791419    0.74788912304    0.70295502959    
0.65116510576    0.60011687015    0.73121963088    0.67312094014    0.61434151013    
0.55884472011    
1.0    0.96538400526    0.95    1.0    0.92000601205    
0.9    0.95913369295    1.0    0.86903291872    0.85    
0.95701048188    1.0    0.81995137328    0.8    0.95590742877    
1.0    0.77024877003    0.75    0.95593396956    1.0    
0.9564812879    1.0    0.72009911714    0.7    0.95732543115    
1.0    0.95812133767    1.0    0.9593733532    1.0    
0.96511729799    0.91600608837    0.88258600317    0.83991377622    0.79098435563    
0.74104570727    0.91187468859    0.91153407609    0.91214185366    0.91379185358    
0.91566984216    0.91696323584    0.91991572278    0.86629682455    0.86742745263    
0.86664992287    0.86930622211    0.87200935229    0.87531587826    0.8737749857    
0.81296847359    0.7630594134    0.83043935308    0.8692125815    0.81742414419    
0.8246807162    0.82685905417    0.83137907541    0.83855543059    0.78622661388    
0.7357980191    0.82039372635    0.76097110423    0.78364947962    0.78146635348    
0.78429570521    0.79467169092    0.73541287677    0.73824985597    0.73897982284    
0.76453172488    
0.0    0.0    0.0    0.0    0.0    
0.0    0.0    0.0    0.0    0.0    
0.0    0.0    0.0    0.0    0.0    
0.0    0.0    0.0    0.0    0.0    
0.0    0.0    0.0    0.0    0.0    
0.0    0.0    0.0    0.0    0.0    
0.0    0.0    0.0    0.0    0.0    
0.0    0.0    0.0    0.0    0.0    
0.0    0.0    0.0    0.0    0.0    
0.0    0.0    0.0    0.0    0.0    
0.0    0.0    0.0    0.0    0.0    
0.0    0.0    0.0    0.0    0.0    
0.0    0.0    0.0    0.0    0.0    
0.0    0.0    0.0    0.0    0.0    
0.0    
100.888329079    301.475890019    114.191591453    291.510964376    201.62914189    
55.3031147508    67.6400821467    354.611901984    331.345545488    119.452091248    
27.6888068052    42.8364102111    370.142705789    270.290729012    350.854860143    
83.5801045855    19.0478082278    31.8932218572    377.41364753    303.133255417    
361.41712729    62.8630455315    14.4449747203    24.904787611    381.891113516    
323.21780532    367.95986801    384.853592454    336.000584569    372.199484848    
49.3439528806    11.4099025182    386.907875102    344.761161921    375.025191749    
388.320604216    350.803835458    377.11316598    389.569742639    354.874932218    
379.915270292    359.146772512    210.158546808    266.806889245    171.734369289    
113.160144638    186.333851241    86.7162903034    152.931308564    67.5576342495    
116.461033351    92.1067659743    296.016306324    222.47184067    314.821554298    
260.040586472    327.07426895    283.065111412    335.461038418    299.558944786    
340.962971253    310.959014184    345.042849178    319.012968295    323.233408044    
226.668760643    148.249666346    258.813931787    200.852442115    279.061134938    
228.247778347    293.821352793    253.481840427    303.947444994    269.780001123    
309.750771507    281.92716263    312.845510301    290.122055029    114.45820342    
170.520730047    137.118767592    159.625482604    206.229871727    285.921407124    
229.982385775    181.415853295    251.71808876    210.066820588    266.158594584    
229.5826741    277.199477519    244.491223257    278.715939866    257.906194694    
132.205298294    150.167362382    174.728408816    258.275342388    188.148517553    
213.218616279    177.076896268    228.238602206    192.040062918    242.740061333    
208.676503014    222.474943958    243.214253695    190.473300546    206.129521485    
221.805756395    
0.97293575685    0.989009545398    0.943651585818    0.974706062208    0.947685042806    
0.923644279669    0.896345756178    0.986565886922    0.971952255656    0.891435211434    
0.873520772673    0.845860961223    0.98569063052    0.944130550938    0.97098381177    
0.843355261487    0.823745038228    0.796305729023    0.985230146199    0.941498507355    
0.970670724839    0.794092653159    0.77381361146    0.74636379278    0.985240413417    
0.941041298689    0.970852370139    0.985468889654    0.941446745449    0.971263740463    
0.744157021882    0.723771662669    0.985820255085    0.942534488537    0.971739667969    
0.986149712756    0.943798294165    0.972371733475    0.986666688895    0.944892178959    
0.974705959102    0.947597275459    0.931196566645    0.928155837793    0.90711174099    
0.863144564612    0.887642505578    0.816566045568    0.862926519409    0.767024497595    
0.814854833919    0.765322656756    0.926425835135    0.89779806926    0.926584967985    
0.896947453662    0.927498851472    0.896630040806    0.92889624336    0.898365906033    
0.930085762224    0.90050945381    0.931650473347    0.902890642579    0.903804376403    
0.881678046042    0.8398401361    0.881915881882    0.85541391154    0.882734362913    
0.849992929311    0.885084136106    0.853557441828    0.887687819647    0.855931566224    
0.888696659791    0.859493257256    0.888605431801    0.863015659707    0.788617192143    
0.837541909591    0.787699253426    0.809112928396    0.838084657973    0.853268698764    
0.836197991644    0.811304243919    0.840344959873    0.808991002886    0.843532665252    
0.810868983772    0.84862445767    0.813827805989    0.844080193814    0.820995848042    
0.761361667078    0.761162138823    0.788260474084    0.817244227912    0.788364781329    
0.796884063169    0.758732751864    0.797522770594    0.766041479586    0.803316836104    
0.76800707345    0.772049335555    0.793676574237    0.751261161284    0.75348021576    
0.765247519911    
1     2     3     
2     1     4     
3     2     5     
2     4     7     
5     2     7     
3     5     6     
6     5     9     
7     4     8     
7     8     11     
9     5     33     
6     9     10     
10     9     13     
11     8     12     
7     11     32     
11     12     15     
13     9     34     
10     13     14     
14     13     17     
15     12     16     
11     15     37     
15     16     19     
17     13     35     
14     17     18     
18     17     23     
19     16     20     
15     19     38     
19     20     21     
21     20     22     
19     21     39     
21     22     25     
23     17     36     
18     23     24     
25     22     26     
21     25     40     
25     26     27     
27     26     28     
25     27     41     
27     28     29     
29     28     30     
27     29     42     
29     30     31     
29     31     43     
5     7     32     
32     11     37     
5     32     33     
9     33     34     
33     32     44     
13     34     35     
34     33     44     
17     35     36     
35     34     51     
36     35     52     
37     15     38     
32     37     44     
38     19     39     
37     38     45     
39     21     40     
38     39     46     
40     25     41     
39     40     47     
41     27     42     
40     41     48     
42     29     43     
41     42     49     
42     43     50     
44     37     45     
34     44     51     
45     38     46     
44     45     53     
46     39     47     
45     46     55     
47     40     48     
46     47     56     
48     41     49     
47     48     57     
49     42     50     
48     49     58     
50     43     54     
49     50     59     
35     51     52     
51     44     53     
52     51     60     
51     53     60     
53     45     55     
50     54     62     
55     46     56     
53     55     60     
56     47     57     
55     56     64     
57     48     58     
56     57     65     
58     49     59     
57     58     66     
59     50     62     
58     59     67     
52     60     61     
61     60     63     
60     55     63     
59     62     67     
63     55     64     
64     56     65     
63     64     68     
65     57     66     
64     65     68     
66     58     67     
65     66     69     
66     67     70     
67     62     71     
68     65     69     
69     66     70     
70     67     71     

