Title = " tecplot file for 2D Cavity problem " 
variables = "x", "y", "z", "velX", "cellCentroidY" 
Zone T = "nmesh0" N = 73 E = 112 DATAPACKING = BLOCK, VARLOCATION = ([4-5]=CELLCENTERED),  ZONETYPE=FETRIANGLE 
1.0    0.96533594013    0.95    1.0    0.95902875974    
1.0    0.9198999378    0.9    0.9568226881    1.0    
0.86890821098    0.85    0.81980127549    0.8    0.95558186406    
1.0    0.95536229089    0.77006876794    0.75    0.71989229368    
0.7    0.66926876975    0.65    0.61821894362    0.6    
0.56761657638    0.91575790296    0.88235203294    0.83962702723    0.79064013388    
0.74064045872    0.68983004436    0.63794983483    0.58411329204    0.91144287106    
0.91077919899    0.91080437106    0.86586765897    0.86668702612    0.86538024806    
0.81246222176    0.7624554153    0.71177776831    0.66019440423    0.60734657527    
0.8297452205    0.81633000309    0.8228028954    0.78540567067    0.73484408151    
0.68351264827    0.63146848902    0.57877398036    0.75975032768    0.78203134701    
0.7790086395    0.70760517349    0.65538816944    0.6038501004    0.73359270097    
0.55208966062    0.67757037868    0.62747862208    0.6960322427    0.64568595357    
0.57739139714    0.527302952    0.47570647776    0.60001209999    0.55543546495    
0.50411884888    0.5911167146    0.53403453919    
0.0    0.035160310391    0.0    0.05    0.078366971877    
0.1    0.048580569352    0.0    0.12799717029    0.15    
0.042635634437    0.0    0.042868879836    0.0    0.17826679782    
0.2    0.2287979588    0.04314350572    0.0    0.043349154299    
0.0    0.043233752164    0.0    0.042552465016    0.0    
0.040486587209    0.10402920562    0.082430829088    0.085678074287    0.085925316644    
0.086566986629    0.0866850808    0.085978048808    0.083867418262    0.15527496326    
0.20692351838    0.25802183198    0.12982587381    0.1848297749    0.23609447727    
0.1277631763    0.12950358558    0.13030639258    0.1299617757    0.1284987352    
0.16585259531    0.21360161042    0.26687620039    0.17182513466    0.17392028402    
0.17442665089    0.1732248109    0.17167019475    0.2164769035    0.25168726381    
0.29584252349    0.2197242833    0.21836628012    0.21643092704    0.26735984044    
0.21553519007    0.26442256197    0.26198678121    0.30338240521    0.31505163276    
0.25868364144    0.26012190396    0.26206796087    0.2982976903    0.3031953365    
0.30489372621    0.34712025081    0.34619273164    
0.0    0.0    0.0    0.0    0.0    
0.0    0.0    0.0    0.0    0.0    
0.0    0.0    0.0    0.0    0.0    
0.0    0.0    0.0    0.0    0.0    
0.0    0.0    0.0    0.0    0.0    
0.0    0.0    0.0    0.0    0.0    
0.0    0.0    0.0    0.0    0.0    
0.0    0.0    0.0    0.0    0.0    
0.0    0.0    0.0    0.0    0.0    
0.0    0.0    0.0    0.0    0.0    
0.0    0.0    0.0    0.0    0.0    
0.0    0.0    0.0    0.0    0.0    
0.0    0.0    0.0    0.0    0.0    
0.0    0.0    0.0    0.0    0.0    
0.0    0.0    0.0    
0.147458370717    0.140351338667    0.740001702385    0.663118655003    0.472269720608    
1.29774023372    1.358697471    0.599124108539    1.43889030077    0.852757895634    
2.65515113605    2.10926245601    2.85727685309    0.812292780379    1.93218593809    
3.90252826207    1.08193566599    2.45377324439    1.26990814119    4.23377766427    
2.90502975715    5.85255346934    4.93031910935    1.33483631014    2.91958069587    
5.8681438914    1.55397507822    3.30171568825    6.62548580205    1.71430657503    
3.56673515173    7.1296406544    1.78653285165    3.64261337553    7.28508652036    
2.47826976707    4.3543372916    3.23206628118    4.23438161486    5.46263753648    
5.607319805    6.07251634634    6.85905468977    7.90397075021    7.94012033586    
9.68130607613    8.77850514322    11.2094991884    9.29185957746    12.3623073479    
13.0393848582    6.32839720358    6.03542706849    8.39201332034    8.77851725894    
11.7300753929    8.56878259511    8.10281776223    11.7688308166    10.3748096115    
14.7185804867    10.2262968546    10.1223870462    12.1468538997    12.8909988695    
13.7288516861    15.3825574354    14.874849957    17.3997917685    18.8013486785    
13.9708736503    12.9173271988    15.3503465966    15.8373620331    18.3619291073    
18.9657171547    20.292218641    22.1703404323    21.5795851966    24.4386228679    
25.9317767583    18.7736754297    22.6141180078    21.4051726252    21.5048146008    
25.9547157985    26.2818680105    28.9255999925    25.5761706774    26.592762356    
27.5955904355    30.0164039403    28.8903144545    32.295254103    30.8898809981    
33.6332105352    33.6934913451    35.178374108    35.5439136182    39.4521398665    
40.3541284478    42.6234702847    36.7718495501    40.3308036079    42.0831855211    
43.7061864293    49.1344393583    45.4838970352    49.5474703954    42.9652935056    
51.2200185123    53.7390858981    
0.01119822617    0.0271632574007    0.0283179167082    0.0555055841631    0.0758081724254    
0.0540848730322    0.102558476203    0.0166828366915    0.0302770030014    0.125748694514    
0.103230850802    0.152433882484    0.057539209692    0.0141837524338    0.0284622921696    
0.0571081492185    0.0142733331211    0.028660564302    0.175833494453    0.15359019813    
0.202652027004    0.204379127512    0.0573107861355    0.0143855846566    0.0288322803906    
0.0576870392791    0.0144724967008    0.0288842053086    0.057736135932    0.0144292854677    
0.0286674644651    0.0571934622128    0.0141556439797    0.0278071832962    0.0555989494658    
0.077067459946    0.129560068005    0.0771774599422    0.0698859579059    0.10676781471    
0.0714346072495    0.100155168974    0.0718878175368    0.0997542865467    0.0722460331027    
0.100663770963    0.0720871837795    0.101167004865    0.0710744689225    0.100782524885    
0.0992207842347    0.180441410251    0.129393052315    0.23154549506    0.181980883571    
0.233399057192    0.156775083469    0.11467907625    0.209665022502    0.159117171099    
0.211221917349    0.114458304271    0.140586579411    0.115502981365    0.143009518272    
0.115738390793    0.144585820747    0.114994832732    0.144872534612    0.143756911529    
0.189410905257    0.155052973711    0.184400750328    0.158467435276    0.159598171173    
0.187380503173    0.159294760923    0.189449409455    0.157929864217    0.188633610459    
0.186974074234    0.201074596146    0.203484668638    0.22637679062    0.243198505054    
0.272115388583    0.245722163174    0.271715199596    0.204217966399    0.234855910552    
0.202710826351    0.234201108429    0.201254436601    0.232260638993    0.250695402797    
0.230044412138    0.248128803959    0.27772753598    0.245670724295    0.281313986969    
0.294621099976    0.291858716399    0.24474319551    0.272574991794    0.274046158876    
0.286482411565    0.321162598602    0.289440192896    0.317106497544    0.275628441386    
0.317931099253    0.332609917062    
1     2     3     
1     2     4     
2     3     7     
4     2     5     
4     5     6     
5     2     7     
6     5     9     
7     3     8     
7     8     11     
6     9     10     
9     5     27     
10     9     15     
7     11     28     
11     8     12     
11     12     13     
11     13     29     
13     12     14     
13     14     18     
10     15     16     
15     9     35     
16     15     17     
17     15     36     
13     18     30     
18     14     19     
18     19     20     
18     20     31     
20     19     21     
20     21     22     
20     22     32     
22     21     23     
22     23     24     
22     24     33     
24     23     25     
24     25     26     
24     26     34     
5     7     27     
9     27     35     
27     7     28     
28     11     29     
27     28     38     
29     13     30     
28     29     38     
30     18     31     
29     30     41     
31     20     32     
30     31     42     
32     22     33     
31     32     43     
33     24     34     
32     33     44     
33     34     45     
15     35     36     
35     27     38     
17     36     37     
36     35     39     
37     36     40     
35     38     39     
38     29     41     
36     39     40     
39     38     46     
40     39     47     
41     30     42     
38     41     46     
42     31     43     
41     42     49     
43     32     44     
42     43     50     
44     33     45     
43     44     51     
44     45     52     
39     46     47     
46     41     49     
47     46     49     
49     42     50     
50     43     51     
49     50     54     
51     44     52     
50     51     57     
52     45     53     
51     52     58     
52     53     59     
47     49     54     
54     50     57     
47     54     55     
48     55     47     
48     55     56     
55     54     60     
56     55     60     
57     51     58     
54     57     60     
58     52     59     
57     58     62     
59     53     61     
58     59     63     
60     57     62     
59     61     66     
62     58     63     
60     62     64     
63     59     66     
62     63     65     
64     62     65     
65     63     69     
66     61     67     
63     66     69     
66     67     70     
69     66     70     
65     69     72     
70     67     71     
69     70     72     
67     71     68     
70     71     73     
72     70     73     

