Title = " tecplot file for 2D Cavity problem " 
variables = "x", "y", "z", "velX", "cellCentroidY" 
Zone T = "nmesh0" N = 72 E = 112 DATAPACKING = BLOCK, VARLOCATION = ([4-5]=CELLCENTERED), ZONETYPE=FETRIANGLE
0.0    0.035120710962    0.0    0.05    0.04850221109    
0.0    0.078287686615    0.1    0.042566966379    0.0    
0.12788545027    0.15    0.17812634295    0.2    0.042855164531    
0.22863468468    0.25    0.27918417339    0.3    0.32987154002    
0.35    0.38077260587    0.4    0.43194375582    0.45    
0.48257865397    0.10387432614    0.082296730711    0.085587598548    0.086008722902    
0.15505514023    0.20664380416    0.25768999056    0.30888281734    0.36030518618    
0.41245481225    0.46636757865    0.52522490341    0.12962771948    0.18451657268    
0.23568390455    0.28735909426    0.33877361245    0.39065935698    0.44357612361    
0.12769678517    0.16562942921    0.21324590735    0.26631645838    0.3169264893    
0.36812645846    0.42002588822    0.171790632    0.4980530852    0.47270392277    
0.21634824514    0.2511933642    0.29510139011    0.34529000254    0.39635736997    
0.26682786721    0.44811466774    0.50020610709    0.321449226    0.37224447136    
0.3470621132    0.47570647776    0.42364937364    0.45164534644    0.39821088213    
0.36831459502    0.42805295981    
0.0    0.034603056938    0.05    0.0    0.079952230082    
0.1    0.040847230977    0.0    0.13089051798    0.15    
0.042991554535    0.0    0.044188135119    0.0    0.17993069747    
0.044394215363    0.0    0.044276403983    0.0    0.044001432648    
0.0    0.043596310128    0.0    0.042750101602    0.0    
0.040562825526    0.083930719754    0.11730383291    0.15989790134    0.20873203944    
0.088118597995    0.088703707954    0.088677574682    0.088088980433    0.087499787678    
0.086465144918    0.084115531867    0.077612739054    0.13354273209    0.13252359398    
0.13373329599    0.13218098955    0.13155127065    0.1307208557    0.12908883673    
0.18671167731    0.16929480836    0.18236095365    0.17587092392    0.17549646507    
0.17512743302    0.17418630145    0.21329728861    0.12633330032    0.17248305254    
0.23832528611    0.21604052276    0.21912803268    0.21928338163    0.21934360192    
0.26347638928    0.21817994343    0.21652383965    0.26202612804    0.26449088231    
0.30877270069    0.26206796087    0.26426585981    0.30825562625    0.31189818455    
0.36419194497    0.35590734171    
0.0    0.0    0.0    0.0    0.0    
0.0    0.0    0.0    0.0    0.0    
0.0    0.0    0.0    0.0    0.0    
0.0    0.0    0.0    0.0    0.0    
0.0    0.0    0.0    0.0    0.0    
0.0    0.0    0.0    0.0    0.0    
0.0    0.0    0.0    0.0    0.0    
0.0    0.0    0.0    0.0    0.0    
0.0    0.0    0.0    0.0    0.0    
0.0    0.0    0.0    0.0    0.0    
0.0    0.0    0.0    0.0    0.0    
0.0    0.0    0.0    0.0    0.0    
0.0    0.0    0.0    0.0    0.0    
0.0    0.0    0.0    0.0    0.0    
0.0    0.0    
0.147678760521    0.139087242676    0.743818211519    0.655383877103    1.29201982842    
0.612324047857    1.48949467882    0.45845232099    1.30739019394    2.94003592141    
0.862008154511    2.10177183375    0.796875953883    2.56987874193    1.93828335886    
1.12282182095    3.91178236636    2.50342299236    4.21550936316    1.39371426532    
5.06590458495    2.97939595834    1.61116858968    6.03149740798    3.36305970022    
1.77350413244    6.7823541025    3.64543600296    1.87521595964    7.32787820654    
3.80411270554    1.88942851156    7.61634522946    3.77192700226    7.55245382424    
2.46005444569    4.15666544387    3.25678717203    4.44629893227    5.4639398656    
6.21493128079    6.25807434028    8.61474136261    5.71098906275    5.87169670798    
7.02540776543    8.05345101644    8.10421206435    9.97394162043    8.93642695319    
11.438802156    9.5053071687    12.5974705869    9.73893625324    13.3770182378    
9.41710247711    13.6713198999    13.2842147699    8.21125968135    8.44741191073    
10.5131606782    10.1785450899    12.4427094817    13.5213381674    13.9538812628    
15.7302183889    15.0994282034    17.6363969489    15.8067445223    19.0917149243    
15.9784584006    19.9837667712    10.320620763    13.4150388886    13.4593900289    
16.4658815807    15.379814254    18.6646964946    19.7275191761    20.5318243073    
22.3945830367    21.8690159094    24.6643854834    22.5693058147    26.3191647474    
20.2400961123    18.942146128    27.1806920469    20.7548864342    22.953325943    
25.8584377611    25.7378964241    26.7886495215    27.8970051265    29.9564360859    
29.2866866754    32.6470154454    30.6176910334    29.8259417228    34.3149398782    
34.894615873    33.8154864108    36.163485671    38.7619006414    43.1480223345    
37.3946964433    42.9625995367    41.7701935923    45.4865566545    51.7238955337    
49.7207909197    54.5863634727    
0.0270625246701    0.0109857190957    0.0563280658407    0.0252876019336    0.0522843574925    
0.0763453391183    0.10360888115    0.0134265997087    0.0280492025543    0.108498371511    
0.126461561188    0.154066935765    0.0143108398092    0.0558317838571    0.0290575057112    
0.0148112293581    0.0585136021545    0.0294746648637    0.156523114657    0.0149000272318    
0.0591579193842    0.0294982319862    0.0148537338012    0.0591745601183    0.0293887755788    
0.0147430984742    0.0588091491041    0.0291986116876    0.014580740044    0.0583556675601    
0.0288376315527    0.0142392495887    0.057555144304    0.0278868491581    0.0557856051643    
0.0687700940793    0.0718378987128    0.0928097521987    0.136723003384    0.112253420153    
0.18323346139    0.136916602412    0.184880014555    0.0737065757199    0.102099819206    
0.0739087361973    0.103072885807    0.0736838861987    0.103784159683    0.073237148282    
0.10295398938    0.0726331766396    0.102332620041    0.0713724990062    0.101465110699    
0.0679704862997    0.0996788060723    0.0955461199675    0.118267574592    0.159931372373    
0.118314204096    0.144408001935    0.118219483831    0.149972672105    0.117318671937    
0.147139024037    0.116677189157    0.146350487065    0.115592206443    0.145734698232    
0.113440129843    0.144548956956    0.162215996737    0.161744448899    0.190522705384    
0.164064196359    0.188370039445    0.161193970848    0.190955174716    0.160760486263    
0.190144237541    0.160081738641    0.189945671464    0.158689743123    0.189536857035    
0.142437957033    0.211244471922    0.188220876512    0.211228594825    0.203387269617    
0.240491432054    0.204608935268    0.233652729453    0.204583302177    0.233426665293    
0.203918299067    0.234454228792    0.248508044927    0.202415689256    0.233988638166    
0.232225066039    0.24862152819    0.249321036626    0.278544498382    0.294946932562    
0.248181514136    0.278197427896    0.280478668612    0.294863736437    0.325316851783    
0.329190254978    0.344416489459    
1     2     3     
2     1     4     
3     2     5     
2     4     7     
5     2     7     
3     5     6     
6     5     9     
7     4     8     
7     8     11     
9     5     28     
6     9     10     
10     9     15     
11     8     12     
7     11     27     
11     12     13     
13     12     14     
11     13     31     
13     14     16     
15     9     29     
16     14     17     
13     16     32     
16     17     18     
18     17     19     
16     18     33     
18     19     20     
20     19     21     
18     20     34     
20     21     22     
22     21     23     
20     22     35     
22     23     24     
24     23     25     
22     24     36     
24     25     26     
24     26     37     
5     7     27     
27     11     31     
5     27     28     
9     28     29     
28     27     39     
15     29     30     
29     28     39     
30     29     46     
31     13     32     
27     31     39     
32     16     33     
31     32     40     
33     18     34     
32     33     41     
34     20     35     
33     34     42     
35     22     36     
34     35     43     
36     24     37     
35     36     44     
37     26     38     
36     37     45     
37     38     54     
39     31     40     
29     39     46     
40     32     41     
39     40     47     
41     33     42     
40     41     48     
42     34     43     
41     42     49     
43     35     44     
42     43     50     
44     36     45     
43     44     51     
45     37     54     
44     45     52     
46     39     47     
47     40     48     
46     47     53     
48     41     49     
47     48     53     
49     42     50     
48     49     57     
50     43     51     
49     50     58     
51     44     52     
50     51     59     
52     45     55     
51     52     60     
45     54     55     
53     48     56     
52     55     62     
56     48     57     
57     49     58     
56     57     61     
58     50     59     
57     58     61     
59     51     60     
58     59     64     
60     52     62     
59     60     65     
61     58     64     
62     55     63     
60     62     68     
62     63     67     
64     59     65     
65     60     68     
64     65     66     
66     65     70     
62     67     68     
68     67     69     
65     68     70     
68     69     70     
70     69     72     
66     70     71     
71     70     72     

