Title = " tecplot file for 2D Cavity problem " 
variables = "x", "y", "z", "velX", "cellCentroidY" 
Zone T = "nmesh0" N = 71 E = 111 DATAPACKING = BLOCK, VARLOCATION = ([4-5]=CELLCENTERED), ZONETYPE=FETRIANGLE
1.0    0.9649024825    1.0    0.95    0.95155322615    
1.0    0.92177911433    0.9    0.95749200678    1.0    
0.87226824393    0.85    0.9572484407    1.0    0.82219618312    
0.8    0.95696372984    1.0    0.77199475402    0.75    
0.72195093401    0.7    0.95675970876    1.0    0.67197150816    
0.65    0.62193949298    0.6    0.57236329358    0.55    
0.52831468118    0.89627773688    0.91782156923    0.91455680685    0.91426123614    
0.91359975372    0.84526518899    0.79400903185    0.74361496428    0.69356203423    
0.64373910321    0.59286509504    0.53807151633    0.87057486204    0.81583309813    
0.76505094353    0.71431985769    0.6649602505    0.61677039554    0.56805308825    
0.87249847607    0.87066024693    0.83452260875    0.52340883677    0.78675489866    
0.73380082327    0.68391918853    0.63574362176    0.59322958088    0.82830603574    
0.82608162102    0.54938968204    0.78320791419    0.74788912304    0.70295502959    
0.65116510576    0.60011687015    0.73121963088    0.67312094014    0.61434151013    
0.55884472011    
1.0    0.96538400526    0.95    1.0    0.92000601205    
0.9    0.95913369295    1.0    0.86903291872    0.85    
0.95701048188    1.0    0.81995137328    0.8    0.95590742877    
1.0    0.77024877003    0.75    0.95593396956    1.0    
0.9564812879    1.0    0.72009911714    0.7    0.95732543115    
1.0    0.95812133767    1.0    0.9593733532    1.0    
0.96511729799    0.91600608837    0.88258600317    0.83991377622    0.79098435563    
0.74104570727    0.91187468859    0.91153407609    0.91214185366    0.91379185358    
0.91566984216    0.91696323584    0.91991572278    0.86629682455    0.86742745263    
0.86664992287    0.86930622211    0.87200935229    0.87531587826    0.8737749857    
0.81296847359    0.7630594134    0.83043935308    0.8692125815    0.81742414419    
0.8246807162    0.82685905417    0.83137907541    0.83855543059    0.78622661388    
0.7357980191    0.82039372635    0.76097110423    0.78364947962    0.78146635348    
0.78429570521    0.79467169092    0.73541287677    0.73824985597    0.73897982284    
0.76453172488    
0.0    0.0    0.0    0.0    0.0    
0.0    0.0    0.0    0.0    0.0    
0.0    0.0    0.0    0.0    0.0    
0.0    0.0    0.0    0.0    0.0    
0.0    0.0    0.0    0.0    0.0    
0.0    0.0    0.0    0.0    0.0    
0.0    0.0    0.0    0.0    0.0    
0.0    0.0    0.0    0.0    0.0    
0.0    0.0    0.0    0.0    0.0    
0.0    0.0    0.0    0.0    0.0    
0.0    0.0    0.0    0.0    0.0    
0.0    0.0    0.0    0.0    0.0    
0.0    0.0    0.0    0.0    0.0    
0.0    0.0    0.0    0.0    0.0    
0.0    
100.888329078    301.475890019    114.19159145    55.3031147486    291.510964373    
354.611901982    67.6400821414    27.6888068022    331.345545483    370.142705787    
42.8364102036    19.0478082236    350.854860136    377.413647526    31.8932218472    
14.4449747148    361.417127282    381.891113511    367.959868002    384.85359245    
24.9047875984    11.4099025116    372.199484841    386.9078751    375.025191745    
388.320604215    377.11316598    389.56974264    379.915270297    201.629141885    
270.290729003    210.158546799    119.452091238    171.734369277    83.5801045705    
113.160144622    62.8630455114    86.7162902813    49.3439528553    67.5576342203    
303.133255403    266.80688923    323.217805304    296.016306304    336.000584552    
314.821554276    344.761161907    327.07426893    350.80383545    335.461038404    
354.874932217    340.962971247    359.146772516    345.04284918    222.471840651    
186.333851222    152.931308541    260.040586445    226.668760616    283.065111382    
258.813931754    299.558944758    279.061134903    310.959014164    293.821352764    
319.012968286    303.947444978    323.233408046    309.7507715    116.461033321    
148.249666316    92.1067659342    114.45820338    170.520730012    200.852442083    
312.845510305    228.247778307    206.229871687    253.481840383    229.982385727    
269.780001085    251.718088712    281.927162604    266.158594547    290.122055007    
277.199477497    137.118767546    159.625482563    132.205298236    181.415853253    
278.715939816    285.921407115    150.167362318    174.728408762    210.066820531    
188.148517493    229.582674042    213.218616216    244.491223208    228.238602147    
257.906194658    242.740061286    258.275342352    177.076896196    192.040062849    
208.676502956    190.473300483    222.474943906    206.129521437    243.214253659    
221.80575634    
0.97293575685    0.989009545398    0.943651585818    0.923644279669    0.974706062208    
0.986565886922    0.896345756178    0.873520772673    0.971952255656    0.98569063052    
0.845860961223    0.823745038228    0.97098381177    0.985230146199    0.796305729023    
0.77381361146    0.970670724839    0.985240413417    0.970852370139    0.985468889654    
0.74636379278    0.723771662669    0.971263740463    0.985820255085    0.971739667969    
0.986149712756    0.972371733475    0.986666688895    0.974705959102    0.947685042806    
0.944130550938    0.931196566645    0.891435211434    0.90711174099    0.843355261487    
0.863144564612    0.794092653159    0.816566045568    0.744157021882    0.767024497595    
0.941498507355    0.928155837793    0.941041298689    0.926425835135    0.941446745449    
0.926584967985    0.942534488537    0.927498851472    0.943798294165    0.92889624336    
0.944892178959    0.930085762224    0.947597275459    0.931650473347    0.89779806926    
0.887642505578    0.862926519409    0.896947453662    0.881678046042    0.896630040806    
0.881915881882    0.898365906033    0.882734362913    0.90050945381    0.885084136106    
0.902890642579    0.887687819647    0.903804376403    0.888696659791    0.814854833919    
0.8398401361    0.765322656756    0.788617192143    0.837541909591    0.85541391154    
0.888605431801    0.849992929311    0.838084657973    0.853557441828    0.836197991644    
0.855931566224    0.840344959873    0.859493257256    0.843532665252    0.863015659707    
0.84862445767    0.787699253426    0.809112928396    0.761361667078    0.811304243919    
0.844080193814    0.853268698764    0.761162138823    0.788260474084    0.808991002886    
0.788364781329    0.810868983772    0.796884063169    0.813827805989    0.797522770594    
0.820995848042    0.803316836104    0.817244227912    0.758732751864    0.766041479586    
0.76800707345    0.751261161284    0.772049335555    0.75348021576    0.793676574237    
0.765247519911    
1     2     3     
2     1     4     
3     2     5     
3     5     6     
2     4     7     
7     4     8     
6     5     9     
6     9     10     
7     8     11     
11     8     12     
10     9     13     
10     13     14     
11     12     15     
15     12     16     
14     13     17     
14     17     18     
15     16     19     
19     16     20     
19     20     21     
21     20     22     
18     17     23     
18     23     24     
21     22     25     
25     22     26     
25     26     27     
27     26     28     
27     28     29     
29     28     30     
29     30     31     
5     2     7     
7     11     32     
5     7     32     
9     5     33     
5     32     33     
13     9     34     
9     33     34     
17     13     35     
13     34     35     
23     17     36     
17     35     36     
11     15     37     
32     11     37     
15     19     38     
37     15     38     
19     21     39     
38     19     39     
21     25     40     
39     21     40     
25     27     41     
40     25     41     
27     29     42     
41     27     42     
29     31     43     
42     29     43     
32     37     44     
33     32     44     
34     33     44     
37     38     45     
44     37     45     
38     39     46     
45     38     46     
39     40     47     
46     39     47     
40     41     48     
47     40     48     
41     42     49     
48     41     49     
42     43     50     
49     42     50     
35     34     51     
34     44     51     
36     35     52     
35     51     52     
51     44     53     
44     45     53     
50     43     54     
45     46     55     
53     45     55     
46     47     56     
55     46     56     
47     48     57     
56     47     57     
48     49     58     
57     48     58     
49     50     59     
58     49     59     
52     51     60     
51     53     60     
52     60     61     
53     55     60     
59     50     62     
50     54     62     
61     60     63     
60     55     63     
55     56     64     
63     55     64     
56     57     65     
64     56     65     
57     58     66     
65     57     66     
58     59     67     
66     58     67     
59     62     67     
63     64     68     
64     65     68     
65     66     69     
68     65     69     
66     67     70     
69     66     70     
67     62     71     
70     67     71     

