Title = " tecplot file for 2D Cavity problem " 
variables = "x", "y", "z", "velX", "cellCentroidY" 
Zone T = "nmesh0" N = 72 E = 111 DATAPACKING = BLOCK, VARLOCATION = ([4-5]=CELLCENTERED),  ZONETYPE=FETRIANGLE 
1.0    0.9649024825    1.0    0.95    0.95155322615    
1.0    0.92177911433    0.9    0.95749200678    1.0    
0.87226824393    0.85    0.9572484407    1.0    0.82219618312    
0.8    0.95696372984    1.0    0.77199475402    0.95675970876    
1.0    0.95688164945    1.0    0.95755698627    1.0    
0.95959377415    1.0    1.0    0.95945200039    1.0    
0.96732120107    0.89627773688    0.91782156923    0.91455680685    0.91426123614    
0.91359975372    0.91349616662    0.91421551885    0.91629100111    0.92245638347    
0.84526518899    0.79400903185    0.74361496428    0.87057486204    0.81583309813    
0.76505094353    0.87249847607    0.87066024693    0.86985479406    0.87026057149    
0.87173328327    0.8740188815    0.83452260875    0.78675489866    0.82830603574    
0.82608162102    0.82569617528    0.82706195114    0.8285477429    0.8287191441    
0.78320791419    0.77998716233    0.78188085254    0.78401043104    0.73121963088    
0.73540856209    0.73883927731    0.78450765774    0.69489576235    0.68591149471    
0.74192742165    0.70398345607    
1.0    0.96538400526    0.95    1.0    0.92000601205    
0.9    0.95913369295    1.0    0.86903291872    0.85    
0.95701048188    1.0    0.81995137328    0.8    0.95590742877    
1.0    0.77024877003    0.75    0.95593396956    0.72009911714    
0.7    0.66949183304    0.65    0.61844504415    0.6    
0.56783265302    0.55    0.45    0.48279214809    0.5    
0.52524828361    0.91600608837    0.88258600317    0.83991377622    0.79098435563    
0.74104570727    0.69028227669    0.63842124284    0.58457816469    0.52565479765    
0.91187468859    0.91153407609    0.91214185366    0.86629682455    0.86742745263    
0.86664992287    0.81296847359    0.7630594134    0.71247305247    0.6609412431    
0.60810077634    0.5536017523    0.83043935308    0.81742414419    0.78622661388    
0.7357980191    0.68457114667    0.63254850053    0.57985069778    0.52684794462    
0.76097110423    0.70901105062    0.65682439085    0.60527804061    0.73541287677    
0.67929764752    0.62923533916    0.55356110881    0.69786106312    0.64719166416    
0.57923162396    0.60227481054    
0.0    0.0    0.0    0.0    0.0    
0.0    0.0    0.0    0.0    0.0    
0.0    0.0    0.0    0.0    0.0    
0.0    0.0    0.0    0.0    0.0    
0.0    0.0    0.0    0.0    0.0    
0.0    0.0    0.0    0.0    0.0    
0.0    0.0    0.0    0.0    0.0    
0.0    0.0    0.0    0.0    0.0    
0.0    0.0    0.0    0.0    0.0    
0.0    0.0    0.0    0.0    0.0    
0.0    0.0    0.0    0.0    0.0    
0.0    0.0    0.0    0.0    0.0    
0.0    0.0    0.0    0.0    0.0    
0.0    0.0    0.0    0.0    0.0    
0.0    0.0    
100.888329078    301.475890018    114.191591447    291.510964372    201.629141882    
55.3031147461    67.6400821351    354.611901981    331.345545482    119.452091226    
27.6888067977    42.8364101919    370.142705787    270.290728999    350.854860139    
83.5801045479    19.047808216    31.8932218286    377.41364753    303.133255408    
361.417127296    62.8630454732    14.4449747057    24.9047875823    323.217805326    
49.3439528189    11.4099025087    19.9163428187    39.4575125022    9.13221554281    
16.059302033    31.6960077758    7.26309441749    12.7929513169    25.2268604513    
5.51041440102    9.44082734581    3.92442264091    8.16019807078    19.3087033096    
3.3824531823    17.1977137786    210.158546792    266.806889229    171.734369267    
113.160144602    186.33385121    86.7162902438    152.931308521    67.5576341606    
116.461033274    53.9815962914    92.106765857    43.6065257803    74.0157320375    
35.1699504741    59.7851581223    27.5025787142    48.0817002285    37.6882945802    
296.01630632    222.471840645    314.821554309    260.040586468    283.065111428    
226.668760622    148.249666287    258.813931805    200.852442087    228.247778364    
114.458203304    170.520729995    92.0190335511    137.118767488    74.7426010679    
111.545363149    60.8813773471    90.9805658881    49.3879932967    74.129945159    
60.3684317225    159.625482537    206.229871732    181.415853259    132.205298159    
108.450711815    150.167362265    89.0788914145    124.170291942    73.1318038912    
101.976411983    60.0394894936    83.9706390963    174.728408761    69.6224181647    
143.478833936    118.913307233    158.838594495    98.1941557964    130.651281965    
81.4465968565    108.18110175    149.768356084    123.427918172    158.040288264    
103.165365341    132.608261848    90.1708382834    146.440572488    124.113764597    
109.864194665    
0.97293575685    0.989009545398    0.943651585818    0.974706062208    0.947685042806    
0.923644279669    0.896345756178    0.986565886922    0.971952255656    0.891435211434    
0.873520772673    0.845860961223    0.98569063052    0.944130550938    0.97098381177    
0.843355261487    0.823745038228    0.796305729023    0.985230146199    0.941498507355    
0.970670724839    0.794092653159    0.77381361146    0.74636379278    0.941041298689    
0.744157021882    0.723771662669    0.696096168108    0.693664693482    0.673621043172    
0.645496550564    0.642554949463    0.623375049926    0.594942624852    0.590884427244    
0.573286461272    0.547950270045    0.476871019464    0.502458155871    0.540064497569    
0.525048713053    0.510746451578    0.931196566645    0.928155837793    0.90711174099    
0.863144564612    0.887642505578    0.816566045568    0.862926519409    0.767024497595    
0.814854833919    0.716754166983    0.765322656756    0.665652743739    0.714876234022    
0.613273480248    0.663464507181    0.558258409876    0.610540979871    0.554317904788    
0.926425835135    0.89779806926    0.926584967985    0.896947453662    0.896630040806    
0.881678046042    0.8398401361    0.881915881882    0.85541391154    0.849992929311    
0.788617192143    0.837541909591    0.7385224582    0.787699253426    0.687613934728    
0.737328872897    0.635563775473    0.68614587304    0.581893659214    0.633935521086    
0.580445795644    0.809112928396    0.838084657973    0.811304243919    0.761361667078    
0.710725371046    0.761162138823    0.659242977502    0.709911254177    0.606769583223    
0.658031022976    0.553424297496    0.605868128186    0.788260474084    0.553388209016    
0.734957997235    0.683465086808    0.735329969782    0.631576279288    0.681869988285    
0.579562431061    0.630447208669    0.70806104649    0.655166391964    0.705057170916    
0.604718155272    0.652040013938    0.579338239311    0.673608622641    0.627144679478    
0.60357873774    
1     2     3     
1     2     4     
2     3     5     
4     2     7     
2     5     7     
5     3     6     
5     6     9     
4     7     8     
8     7     11     
5     9     33     
9     6     10     
9     10     13     
8     11     12     
11     7     32     
12     11     15     
9     13     34     
13     10     14     
13     14     17     
12     15     16     
15     11     41     
16     15     19     
13     17     35     
17     14     18     
17     18     20     
19     15     42     
17     20     36     
20     18     21     
20     21     22     
20     22     37     
22     21     23     
22     23     24     
22     24     38     
24     23     25     
24     25     26     
24     26     39     
26     25     27     
26     27     31     
30     29     28     
30     29     31     
26     31     40     
31     27     30     
31     29     40     
7     5     32     
11     32     41     
32     5     33     
33     9     34     
32     33     44     
34     13     35     
33     34     44     
35     17     36     
34     35     47     
36     20     37     
35     36     48     
37     22     38     
36     37     49     
38     24     39     
37     38     50     
39     26     40     
38     39     51     
39     40     52     
15     41     42     
41     32     44     
19     42     43     
42     41     45     
43     42     46     
41     44     45     
44     34     47     
42     45     46     
45     44     53     
46     45     54     
47     35     48     
44     47     53     
48     36     49     
47     48     55     
49     37     50     
48     49     56     
50     38     51     
49     50     57     
51     39     52     
50     51     58     
51     52     59     
53     47     55     
45     53     54     
54     53     55     
55     48     56     
56     49     57     
55     56     61     
57     50     58     
56     57     62     
58     51     59     
57     58     63     
59     52     60     
58     59     64     
54     55     61     
59     60     68     
61     56     62     
62     57     63     
61     62     65     
63     58     64     
62     63     66     
64     59     68     
63     64     67     
65     62     66     
66     63     67     
65     66     69     
67     64     71     
66     67     70     
64     68     71     
69     66     70     
70     67     72     
67     71     72     

