Title = " tecplot file for 2D Cavity problem " 
variables = "x", "y", "z", "velX", "cellCentroidY" 
Zone T = "nmesh0" N = 73 E = 112 DATAPACKING = BLOCK, VARLOCATION = ([4-5]=CELLCENTERED), ZONETYPE=FETRIANGLE
0.27787861171    0.3    0.32796034389    0.35    0.3780940118    
0.4    0.42905991008    0.45    0.48437517704    0.5    
0.55    0.52831468118    0.25556438214    0.30579964368    0.35568297833    
0.40509640655    0.45334364094    0.53807151633    0.49584885187    0.28377974538    
0.33376921204    0.38329865929    0.43176589433    0.47747547855    0.52340883677    
0.26246422251    0.31196318691    0.36179928454    0.41183165372    0.46126715131    
0.54938968204    0.28993904335    0.33921499668    0.38982497711    0.17324890933    
0.21775273626    0.44267518442    0.50340439664    0.26144809539    0.21891561674    
0.25830592947    0.26132031436    0.31483349438    0.36482030429    0.29494419501    
0.30359637981    0.50149406194    0.55884472011    0.33823584214    0.41634090302    
0.26351713675    0.26510548457    0.30816477502    0.30930861693    0.46979219871    
0.52169417532    0.3880931865    0.44101343833    0.49319345201    0.54466024892    
0.35583992573    0.35233111223    0.35555275566    0.41253598071    0.39053816527    
0.4648010572    0.51753479009    0.43536590084    0.54224118495    0.48724078267    
0.39861785617    0.51058041495    0.45106460202    
0.95551865514    1.0    0.95553839046    1.0    0.95541730285    
1.0    0.95479055731    1.0    0.95104823121    1.0    
1.0    0.96511729799    0.9110453664    0.9112501119    0.91113186852    
0.91083540554    0.90991212793    0.91991572278    0.90454059621    0.86722965201    
0.86709419297    0.86665362054    0.86644243609    0.86717917706    0.8692125815    
0.82384444306    0.82359788089    0.822792688    0.82212720435    0.82300523501    
0.82039372635    0.7807004308    0.77971905889    0.77810457249    0.57967193997    
0.60598699997    0.77773895974    0.83071296987    0.73707260391    0.5533941137    
0.68318983012    0.6323493072    0.73836094926    0.73478334833    0.70237467952    
0.65883384528    0.7812628525    0.76453172488    0.69293647421    0.73255140304    
0.58072352869    0.52811193295    0.60895214947    0.5561978634    0.7317085805    
0.72695267365    0.68778569847    0.68604163734    0.68240404586    0.67830493031    
0.6405830601    0.58427045201    0.53240491567    0.64296000129    0.60540634904    
0.63796501606    0.63349850238    0.59578284779    0.58512439681    0.58765603511    
0.5609960485    0.53507553622    0.5431305004    
0.0    0.0    0.0    0.0    0.0    
0.0    0.0    0.0    0.0    0.0    
0.0    0.0    0.0    0.0    0.0    
0.0    0.0    0.0    0.0    0.0    
0.0    0.0    0.0    0.0    0.0    
0.0    0.0    0.0    0.0    0.0    
0.0    0.0    0.0    0.0    0.0    
0.0    0.0    0.0    0.0    0.0    
0.0    0.0    0.0    0.0    0.0    
0.0    0.0    0.0    0.0    0.0    
0.0    0.0    0.0    0.0    0.0    
0.0    0.0    0.0    0.0    0.0    
0.0    0.0    0.0    0.0    0.0    
0.0    0.0    0.0    0.0    0.0    
0.0    0.0    0.0    
371.432152024    385.927733799    373.912266959    386.908498515    375.169868066    
387.199318757    374.796767136    386.423489017    391.659445975    378.689406176    
342.595995958    325.325670801    347.498080481    332.808379989    350.362772569    
337.402315285    351.089208795    339.568195265    355.645508075    337.840474213    
342.242310172    297.10276672    306.774534614    290.450016169    312.747565482    
298.91343015    315.952109776    304.157259651    307.001598644    316.064066777    
319.034341095    265.958052456    248.512086695    275.3605238    260.635462653    
281.233808899    268.547955044    306.922481614    284.944551075    273.799573946    
226.512818232    239.006694858    223.793192146    247.216898868    233.916971256    
240.550770938    252.738681064    278.409732518    289.099753292    278.6923421    
82.3832390509    204.666765726    187.941144923    214.422676604    201.134514916    
173.343012332    157.266416082    134.076294091    147.728469975    257.524672242    
245.262234025    256.722390904    241.673500138    183.64996805    172.295740543    
208.921672805    221.172786461    91.796129844    104.840129025    88.0796825607    
157.171228299    127.517824239    113.711254648    95.6065763857    108.200199752    
225.754709302    213.740407884    222.037149533    215.709916917    179.434552231    
190.788515261    195.551000839    184.890500934    195.5839488    187.764232282    
185.934461006    151.57506263    161.695357027    136.573719441    114.661812806    
129.312361287    108.256569028    168.911184049    157.360052892    133.141270857    
145.071130966    170.79333105    162.65071758    169.301088851    162.90290511    
141.034412375    148.17396563    147.652678399    139.830894851    123.90709576    
113.343733122    141.454710701    128.958392283    125.813742662    122.261038648    
127.5668825    120.301463138    
0.970451608875    0.985074898171    0.97041787849    0.985023524176    0.970136785785    
0.984755163952    0.968497161479    0.983115857483    0.98897082674    0.972093832342    
0.940686493539    0.926017763056    0.940613057094    0.926075472898    0.940338047355    
0.925936994633    0.938958502445    0.925404798455    0.944339481926    0.922573402738    
0.926359275727    0.896465681832    0.896410554887    0.881930568138    0.896071915599    
0.881745336096    0.895547467374    0.881512930995    0.881488139884    0.893701029738    
0.897716492347    0.852611440034    0.838284582732    0.852075197909    0.837890873203    
0.851518382879    0.837267177765    0.880070662296    0.85179341732    0.83730487887    
0.809364250869    0.808678158747    0.794729945609    0.807586660323    0.79353328189    
0.792539215574    0.807415414518    0.840116715242    0.855874620864    0.840571829368    
0.579601813515    0.766330870719    0.751779937316    0.764184281262    0.750908294193    
0.726640392396    0.70835577058    0.658252030517    0.680679832523    0.810450049897    
0.793571921344    0.809793082495    0.788807840082    0.722014423637    0.711230327741    
0.74845038393    0.762831757655    0.580031337935    0.606240697129    0.554047835495    
0.684435920342    0.63317228542    0.607308496823    0.554973661775    0.582032778793    
0.763858409091    0.74727463536    0.758098006151    0.747289893619    0.705230668215    
0.71826263166    0.716779301696    0.702111856337    0.71354308168    0.700241958573    
0.696049205701    0.663618518541    0.673132450961    0.636064133929    0.583067475284    
0.611853696194    0.557572698807    0.672411330048    0.65684279822    0.610782524231    
0.630458928187    0.668723187348    0.65565304429    0.664565942914    0.651349664795    
0.614776468585    0.625632250836    0.619501480903    0.602054725769    0.582921050313    
0.559232333717    0.607161112884    0.587113816415    0.568948900765    0.56627752421    
0.575134691611    0.555044106482    
1     3     2     
2     3     4     
4     3     5     
4     5     6     
6     5     7     
6     7     8     
8     7     9     
8     9     10     
10     12     11     
10     9     12     
3     1     14     
14     1     13     
5     3     15     
3     14     15     
7     5     16     
5     15     16     
9     7     17     
7     16     17     
12     9     18     
9     17     19     
18     9     19     
14     13     20     
15     14     21     
14     20     21     
16     15     22     
15     21     22     
17     16     23     
16     22     23     
17     23     24     
19     17     24     
18     19     25     
21     20     27     
27     20     26     
22     21     28     
21     27     28     
23     22     29     
22     28     29     
19     24     25     
24     23     30     
23     29     30     
27     26     32     
28     27     33     
27     32     33     
29     28     34     
28     33     34     
29     34     37     
30     29     37     
25     38     31     
25     24     38     
24     30     38     
40     36     35     
33     32     43     
43     32     39     
34     33     44     
33     43     44     
43     39     45     
45     39     41     
42     46     41     
45     41     46     
38     30     47     
30     37     47     
31     38     47     
31     47     48     
44     43     49     
43     45     49     
34     44     50     
37     34     50     
36     40     51     
36     51     42     
51     40     52     
45     46     49     
46     42     53     
42     51     53     
51     52     54     
53     51     54     
47     37     55     
37     50     55     
48     47     56     
47     55     56     
44     49     57     
50     44     57     
55     50     58     
50     57     58     
56     55     59     
55     58     59     
56     59     60     
49     46     61     
57     49     61     
46     53     61     
53     54     62     
61     53     62     
62     54     63     
58     57     64     
57     61     64     
61     62     65     
64     61     65     
59     58     66     
58     64     66     
60     59     67     
59     66     67     
64     65     68     
66     64     68     
67     66     70     
67     70     69     
65     62     71     
62     63     71     
66     68     70     
68     65     71     
69     70     72     
68     71     73     
70     68     73     
72     70     73     

