Title = " tecplot file for 2D Cavity problem " 
variables = "x", "y", "z", "velX", "cellCentroidY" 
Zone T = "nmesh0" N = 72 E = 111 DATAPACKING = BLOCK, VARLOCATION = ([4-5]=CELLCENTERED), ZONETYPE=FETRIANGLE
0.042855164531    0.0    0.0    0.043265203007    0.0    
0.043716340134    0.0    0.043978297298    0.0    0.043900391451    
0.0    0.043210541015    0.0    0.041038258844    0.0    
0.086008722902    0.087025928968    0.08777763524    0.087990307918    0.087376044163    
0.085171824248    0.078494046162    0.12744562348    0.12769678517    0.12978926133    
0.13132652742    0.13214282958    0.13205221684    0.13078968425    0.12805979168    
0.171790632    0.17324890933    0.17443889675    0.17621651281    0.17683335109    
0.17651444769    0.17371339113    0.17509631968    0.21634824514    0.22032305362    
0.22132052015    0.22220198124    0.26682786721    0.22166577428    0.21891561674    
0.22022735401    0.26452305333    0.26771250719    0.321449226    0.30207338081    
0.31212385967    0.3470621132    0.26849227775    0.26510548457    0.31649861763    
0.30930861693    0.26697695529    0.31433362026    0.31166350229    0.36831459502    
0.42805295981    0.35555275566    0.36265881994    0.41245726179    0.46300260783    
0.35878475577    0.39861785617    0.40576697846    0.45337011442    0.40305208591    
0.44744144141    0.45106460202    
0.17993069747    0.15    0.2    0.22957727669    0.25    
0.27961726365    0.3    0.33000821124    0.35    0.38078558888    
0.4    0.43193171668    0.45    0.48258028307    0.5    
0.20873203944    0.25853149504    0.30900375878    0.36017366743    0.41231729187    
0.46632046215    0.5252821822    0.5531581276    0.18671167731    0.23646814222    
0.28687923294    0.33805771312    0.39011050386    0.44331509518    0.49810145703    
0.21329728861    0.57967193997    0.26353762278    0.31471008597    0.36667255304    
0.41923294404    0.52615199079    0.47253147157    0.23832528611    0.28997196743    
0.34245956561    0.39469947697    0.26347638928    0.44737109031    0.5533941137    
0.5004129341    0.31815531262    0.36975058489    0.26202612804    0.29903444147    
0.34396675841    0.30877270069    0.42205759217    0.52811193295    0.39558089953    
0.5561978634    0.47513794685    0.44991134885    0.50343256554    0.36419194497    
0.35590734171    0.53240491567    0.42477109513    0.40619186935    0.3950189306    
0.47978820868    0.5609960485    0.45877128618    0.44283363007    0.51107700524    
0.49016456785    0.5431305004    
0.0    0.0    0.0    0.0    0.0    
0.0    0.0    0.0    0.0    0.0    
0.0    0.0    0.0    0.0    0.0    
0.0    0.0    0.0    0.0    0.0    
0.0    0.0    0.0    0.0    0.0    
0.0    0.0    0.0    0.0    0.0    
0.0    0.0    0.0    0.0    0.0    
0.0    0.0    0.0    0.0    0.0    
0.0    0.0    0.0    0.0    0.0    
0.0    0.0    0.0    0.0    0.0    
0.0    0.0    0.0    0.0    0.0    
0.0    0.0    0.0    0.0    0.0    
0.0    0.0    0.0    0.0    0.0    
0.0    0.0    0.0    0.0    0.0    
0.0    0.0    
1.21653404373    2.85088421843    1.6220382931    3.69241003421    2.08492345515    
4.6374244576    2.59864690267    5.693579564    3.14768218657    6.84144177439    
3.67631575039    7.93331699138    3.98751499901    5.69119695153    7.38671905643    
8.20298967883    9.29493607759    10.4533581327    11.4121879874    12.9940834818    
13.6965058313    15.8479990793    15.9510765273    18.9864154389    22.0559356521    
11.3794340145    11.4370716325    14.5205142148    14.8089868099    18.0613045368    
18.6362529099    22.0267619337    22.9768940025    26.4151850255    27.9046844934    
31.1327902441    39.7351488279    33.4752449404    14.0325646552    18.2303855816    
17.6939957587    22.9916093844    22.6028586656    28.3747992621    28.165849135    
34.5177998712    34.4990661087    50.1449987787    60.6088343794    41.5942082034    
50.1711529648    41.7540874728    20.3949704875    26.2044732181    24.9237658413    
32.6828079568    31.4789002042    40.1305205811    38.898223911    27.7929517304    
48.6799104588    47.3641855354    70.4996153878    58.6290484119    68.6405001279    
35.0526984489    33.0808929576    43.4636643196    41.3032091459    57.1351815534    
35.8331466643    34.5773724311    44.685171411    42.1021490105    39.3017763542    
50.5968291312    53.0779100998    76.783150039    43.6236064218    51.6161566615    
55.1204928287    64.0450679975    73.6554607585    61.2962693156    62.9953928096    
66.8353707412    90.8710870413    80.1779036819    49.8258118851    54.7845365907    
76.0171999383    96.7497144525    62.2985146808    67.3107209058    61.8483412052    
65.7648053198    65.9415439746    76.2073302353    81.1232190445    91.2675152451    
75.1977480484    80.0724105563    73.7340362514    78.3936868085    90.0784542215    
95.8247884741    106.526578802    87.3490301881    93.0834492245    110.846548065    
103.843840774    
0.176227651333    0.203589710918    0.22614719602    0.253473854886    0.276166185232    
0.303620114876    0.326271161401    0.354037150961    0.376468336173    0.404729611362    
0.426742662529    0.455324501018    0.476836076458    0.205720445687    0.255553903934    
0.232686959561    0.30584948768    0.282782203726    0.356602212612    0.333463471517    
0.407893923261    0.384861691074    0.459675010346    0.437410798711    0.492477123753    
0.23427005287    0.211030628806    0.284495235167    0.260999913236    0.335441277182    
0.311665278227    0.387245511606    0.363113796426    0.440443568139    0.415556221823    
0.496822464743    0.525496831749    0.46946652643    0.211865431843    0.262030794391    
0.238122967597    0.312971887779    0.288693975076    0.364734667972    0.340083821389    
0.417424694821    0.39222888356    0.525801439536    0.552939614119    0.471349629553    
0.498932263597    0.445149068985    0.238203232243    0.289210493742    0.264286029446    
0.341087470829    0.315916922499    0.393412692129    0.368168787454    0.263690605408    
0.446355172052    0.420547219401    0.553064380283    0.499706972615    0.52662106164    
0.316613829419    0.290443855154    0.368812373682    0.343808974537    0.473448478162    
0.292656997601    0.274146140167    0.343728225006    0.321316933954    0.289994177008    
0.395656006901    0.421333297458    0.527298748705    0.317487349483    0.370079631012    
0.39576406261    0.474307732496    0.501187201439    0.448181312024    0.422418097464    
0.449038489094    0.529221453892    0.502210255043    0.339739618554    0.367887542219    
0.476097660738    0.530626692923    0.394327921241    0.423410032863    0.375217615719    
0.397626605315    0.38563504945    0.451418614889    0.477637658409    0.505197993196    
0.430038026829    0.454124753941    0.414799475717    0.435530064143    0.483433837984    
0.507584000887    0.534781617799    0.464019055421    0.486386547044    0.53831707291    
0.515504312808    
1     3     2     
3     1     4     
3     4     5     
5     4     6     
5     6     7     
7     6     8     
7     8     9     
9     8     10     
9     10     11     
11     10     12     
11     12     13     
13     12     14     
13     14     15     
4     1     16     
6     4     17     
4     16     17     
8     6     18     
6     17     18     
10     8     19     
8     18     19     
12     10     20     
10     19     20     
14     12     21     
12     20     21     
14     21     22     
17     16     25     
25     16     24     
18     17     26     
17     25     26     
19     18     27     
18     26     27     
20     19     28     
19     27     28     
21     20     29     
20     28     29     
22     21     30     
22     30     23     
21     29     30     
25     24     31     
26     25     33     
25     31     33     
27     26     34     
26     33     34     
28     27     35     
27     34     35     
29     28     36     
28     35     36     
23     30     37     
23     37     32     
30     29     38     
37     30     38     
29     36     38     
33     31     39     
34     33     40     
33     39     40     
35     34     41     
34     40     41     
36     35     42     
35     41     42     
40     39     43     
38     36     44     
36     42     44     
32     37     45     
37     38     46     
45     37     46     
41     40     47     
40     43     47     
42     41     48     
41     47     48     
38     44     46     
47     43     50     
50     43     49     
48     47     51     
47     50     51     
50     49     52     
42     48     53     
44     42     53     
45     46     54     
51     50     52     
48     51     55     
53     48     55     
46     44     57     
54     46     57     
44     53     57     
53     55     58     
57     53     58     
54     59     56     
54     57     59     
51     52     60     
55     51     60     
57     58     59     
56     59     62     
55     60     63     
58     55     63     
61     64     60     
63     60     64     
64     61     65     
58     63     66     
59     58     66     
62     59     66     
63     64     68     
66     63     68     
64     65     69     
68     64     69     
66     68     70     
62     66     70     
62     70     67     
68     69     71     
70     68     71     
67     70     72     
70     71     72     

