Title = " tecplot file for 2D Cavity problem " 
variables = "x", "y", "z", "velX", "cellCentroidY" 
Zone T = "nmesh0" N = 72 E = 112 DATAPACKING = BLOCK, VARLOCATION = ([4-5]=CELLCENTERED),  ZONETYPE=FETRIANGLE 
0.0    0.035120710962    0.0    0.05    0.04850221109    
0.0    0.078287686615    0.1    0.042566966379    0.0    
0.12788545027    0.15    0.17812634295    0.2    0.042855164531    
0.0    0.043265203007    0.0    0.22863468468    0.25    
0.27918417339    0.043716340134    0.0    0.043978297298    0.0    
0.10387432614    0.082296730711    0.085587598548    0.086008722902    0.087025928968    
0.08777763524    0.087990307918    0.15505514023    0.20664380416    0.25768999056    
0.30888281734    0.12962771948    0.18451657268    0.23568390455    0.28735909426    
0.33877361245    0.12769678517    0.12978926133    0.13132652742    0.13214282958    
0.13205221684    0.16562942921    0.21324590735    0.26631645838    0.3169264893    
0.171790632    0.17443889675    0.17621651281    0.17683335109    0.17651444769    
0.21634824514    0.2511933642    0.29510139011    0.34529000254    0.22032305362    
0.22132052015    0.22220198124    0.26682786721    0.22166577428    0.26452305333    
0.26771250719    0.321449226    0.30207338081    0.31212385967    0.3470621132    
0.26849227775    0.31649861763    
0.0    0.034603056938    0.05    0.0    0.079952230082    
0.1    0.040847230977    0.0    0.13089051798    0.15    
0.042991554535    0.0    0.044188135119    0.0    0.17993069747    
0.2    0.22957727669    0.25    0.044394215363    0.0    
0.044276403983    0.27961726365    0.3    0.33000821124    0.35    
0.083930719754    0.11730383291    0.15989790134    0.20873203944    0.25853149504    
0.30900375878    0.36017366743    0.088118597995    0.088703707954    0.088677574682    
0.088088980433    0.13354273209    0.13252359398    0.13373329599    0.13218098955    
0.13155127065    0.18671167731    0.23646814222    0.28687923294    0.33805771312    
0.39011050386    0.16929480836    0.18236095365    0.17587092392    0.17549646507    
0.21329728861    0.26353762278    0.31471008597    0.36667255304    0.41923294404    
0.23832528611    0.21604052276    0.21912803268    0.21928338163    0.28997196743    
0.34245956561    0.39469947697    0.26347638928    0.44737109031    0.31815531262    
0.36975058489    0.26202612804    0.29903444147    0.34396675841    0.30877270069    
0.42205759217    0.39558089953    
0.0    0.0    0.0    0.0    0.0    
0.0    0.0    0.0    0.0    0.0    
0.0    0.0    0.0    0.0    0.0    
0.0    0.0    0.0    0.0    0.0    
0.0    0.0    0.0    0.0    0.0    
0.0    0.0    0.0    0.0    0.0    
0.0    0.0    0.0    0.0    0.0    
0.0    0.0    0.0    0.0    0.0    
0.0    0.0    0.0    0.0    0.0    
0.0    0.0    0.0    0.0    0.0    
0.0    0.0    0.0    0.0    0.0    
0.0    0.0    0.0    0.0    0.0    
0.0    0.0    0.0    0.0    0.0    
0.0    0.0    0.0    0.0    0.0    
0.0    0.0    
0.147678758992    0.139087241311    0.743818203673    0.655383870765    1.29201981523    
0.612324041041    1.4894946618    0.458452317038    1.30739018348    2.9400358884    
0.862008143554    2.10177180366    0.796875949175    2.56987872002    1.93828335021    
1.12282181931    3.91178234661    2.5034229962    4.21550930948    1.21653403611    
2.85088421026    5.69119693393    1.62203829783    3.69241005817    1.3937142742    
5.065904589    2.9793959946    6.03149746801    7.38671909949    2.08492347718    
4.63742451758    9.29493619484    2.59864694157    2.46005442057    4.15666541181    
3.25678713637    4.44629888037    5.46393980724    6.21493120478    6.25807426208    
8.20298969039    8.61474125727    10.4533582295    11.379434036    12.9940836784    
14.5205143534    18.0613048054    5.71098904643    5.87169665587    7.02540779617    
8.05345098598    8.10421217978    9.97394165041    11.4388022992    8.21125962268    
8.4474117968    10.5131606656    10.1785450065    12.4427095632    13.5213381358    
13.9538814919    15.7302184919    17.6363972442    11.4370716007    10.3206206521    
14.8089869104    14.0325646116    18.6362531398    18.230385688    22.9768943601    
22.9916096491    28.374799692    13.415038809    13.4593898899    16.4658815982    
15.3798141323    18.6646967232    19.7275192008    22.3945833034    17.6939957853    
22.6028588666    20.394970532    28.1658495033    26.204473446    34.499066628    
32.6828083899    40.1305212084    18.9421460359    24.9237659755    20.7548863773    
22.9533260888    25.8584377569    25.7378969028    26.7886496297    31.478900564    
27.7929518846    38.8982244719    35.0526988468    47.3641862623    43.463664966    
33.0808932478    30.6176912831    53.0779110086    41.303209697    35.8331470646    
50.5968299534    44.6851720401    34.577372809    42.1021496273    39.3017768533    
51.6161573722    55.1204937061    
0.0270625246701    0.0109857190957    0.0563280658407    0.0252876019336    0.0522843574925    
0.0763453391183    0.10360888115    0.0134265997087    0.0280492025543    0.108498371511    
0.126461561188    0.154066935765    0.0143108398092    0.0558317838571    0.0290575057112    
0.0148112293581    0.0585136021545    0.0294746648637    0.156523114657    0.176227651333    
0.203589710918    0.205720445687    0.22614719602    0.253473854886    0.0149000272318    
0.0591579193842    0.0294982319862    0.0591745601183    0.255553903934    0.276166185232    
0.303620114876    0.30584948768    0.326271161401    0.0687700940793    0.0718378987128    
0.0928097521987    0.136723003384    0.112253420153    0.18323346139    0.136916602412    
0.232686959561    0.184880014555    0.282782203726    0.23427005287    0.333463471517    
0.284495235167    0.335441277182    0.0737065757199    0.102099819206    0.0739087361973    
0.103072885807    0.0736838861987    0.103784159683    0.10295398938    0.118267574592    
0.159931372373    0.118314204096    0.144408001935    0.118219483831    0.149972672105    
0.117318671937    0.147139024037    0.146350487065    0.211030628806    0.162215996737    
0.260999913236    0.211865431843    0.311665278227    0.262030794391    0.363113796426    
0.312971887779    0.364734667972    0.161744448899    0.190522705384    0.164064196359    
0.188370039445    0.161193970848    0.190955174716    0.190144237541    0.238122967597    
0.288693975076    0.238203232243    0.340083821389    0.289210493742    0.39222888356    
0.341087470829    0.393412692129    0.211244471922    0.264286029446    0.211228594825    
0.203387269617    0.240491432054    0.204608935268    0.233652729453    0.315916922499    
0.263690605408    0.368168787454    0.316613829419    0.420547219401    0.368812373682    
0.290443855154    0.248508044927    0.421333297458    0.343808974537    0.292656997601    
0.395656006901    0.343728225006    0.274146140167    0.321316933954    0.289994177008    
0.370079631012    0.39576406261    
1     2     3     
1     2     4     
2     3     5     
4     2     7     
2     5     7     
5     3     6     
5     6     9     
4     7     8     
8     7     11     
5     9     27     
9     6     10     
9     10     15     
8     11     12     
11     7     26     
12     11     13     
12     13     14     
13     11     33     
14     13     19     
9     15     28     
15     10     16     
15     16     17     
15     17     29     
17     16     18     
17     18     22     
14     19     20     
19     13     34     
20     19     21     
21     19     35     
17     22     30     
22     18     23     
22     23     24     
22     24     31     
24     23     25     
7     5     26     
11     26     33     
26     5     27     
27     9     28     
26     27     37     
28     15     29     
27     28     37     
29     17     30     
28     29     42     
30     22     31     
29     30     43     
31     24     32     
30     31     44     
31     32     45     
13     33     34     
33     26     37     
19     34     35     
34     33     38     
21     35     36     
35     34     39     
36     35     40     
33     37     38     
37     28     42     
34     38     39     
38     37     47     
35     39     40     
39     38     48     
36     40     41     
40     39     49     
41     40     50     
42     29     43     
37     42     47     
43     30     44     
42     43     51     
44     31     45     
43     44     52     
45     32     46     
44     45     53     
45     46     54     
38     47     48     
47     42     51     
39     48     49     
48     47     51     
40     49     50     
49     48     57     
50     49     58     
51     43     52     
52     44     53     
51     52     56     
53     45     54     
52     53     60     
54     46     55     
53     54     61     
54     55     62     
48     51     56     
56     52     60     
48     56     57     
49     57     58     
57     56     63     
50     58     59     
58     57     63     
60     53     61     
56     60     63     
61     54     62     
60     61     65     
62     55     64     
61     62     66     
63     60     65     
58     63     67     
62     64     71     
65     61     66     
63     65     68     
66     62     71     
65     66     69     
67     63     68     
68     65     69     
67     68     70     
69     66     72     
66     71     72     

