title = " tecplot file for process Mesh " 
variables = "x",  "y", "z", "cell_type" 
zone N = 74 E = 146 DATAPACKING = BLOCK,  VARLOCATION = ([4]=CELLCENTERED), ZONETYPE=FETRIANGLE 
1.000000e+00     
9.553623e-01     1.000000e+00     9.555027e-01     1.000000e+00     9.558299e-01     
1.000000e+00     9.563008e-01     1.000000e+00     9.572111e-01     1.000000e+00     
9.594520e-01     9.108044e-01     9.114707e-01     9.121835e-01     9.133528e-01     
9.158210e-01     9.224564e-01     8.653802e-01     8.669963e-01     8.677966e-01     
8.688362e-01     8.706623e-01     8.740189e-01     8.163300e-01     8.228029e-01     
8.233677e-01     8.240590e-01     8.252691e-01     8.735977e-01     8.271898e-01     
8.287191e-01     7.790086e-01     7.793897e-01     7.798082e-01     7.335927e-01     
7.811211e-01     7.845077e-01     7.356730e-01     7.344703e-01     6.960322e-01     
7.830008e-01     6.456860e-01     6.895025e-01     7.419274e-01     7.349160e-01     
7.366525e-01     7.039835e-01     6.859115e-01     7.392699e-01     6.884993e-01     
6.275178e-01     6.592261e-01     6.970248e-01     6.924013e-01     6.898336e-01     
6.416119e-01     5.911167e-01     6.024051e-01     6.427130e-01     5.958516e-01     
6.450443e-01     6.486771e-01     5.422412e-01     4.872408e-01     5.964700e-01     
6.015224e-01     5.618447e-01     5.447000e-01     4.953409e-01     5.105804e-01     
4.990265e-01     5.516943e-01     4.510646e-01     
2.000000e-01     
2.287980e-01     2.500000e-01     2.793671e-01     3.000000e-01     3.300732e-01     
3.500000e-01     3.809900e-01     4.000000e-01     4.321675e-01     4.500000e-01     
4.827921e-01     2.580218e-01     3.092658e-01     3.607365e-01     4.129190e-01     
4.668322e-01     5.256548e-01     2.360945e-01     2.878732e-01     3.393931e-01     
3.913762e-01     4.443438e-01     5.536018e-01     2.136016e-01     2.668762e-01     
3.176655e-01     3.690739e-01     4.211422e-01     4.988157e-01     4.738627e-01     
5.268479e-01     2.958425e-01     3.463789e-01     3.978400e-01     2.673598e-01     
4.498079e-01     5.535611e-01     3.225489e-01     3.740214e-01     3.033824e-01     
5.018284e-01     3.150516e-01     3.490188e-01     5.792316e-01     4.260128e-01     
4.781032e-01     6.022748e-01     6.471917e-01     5.293962e-01     4.014514e-01     
6.366538e-01     5.943174e-01     5.580857e-01     5.075288e-01     4.547391e-01     
3.741630e-01     3.471203e-01     5.789723e-01     4.303887e-01     4.058947e-01     
4.852853e-01     5.407052e-01     5.851244e-01     5.876560e-01     4.612991e-01     
5.173959e-01     5.425107e-01     4.359297e-01     4.289272e-01     5.350755e-01     
4.764498e-01     4.937979e-01     5.431305e-01     
0.000000e+00     
0.000000e+00     0.000000e+00     0.000000e+00     0.000000e+00     0.000000e+00     
0.000000e+00     0.000000e+00     0.000000e+00     0.000000e+00     0.000000e+00     
0.000000e+00     0.000000e+00     0.000000e+00     0.000000e+00     0.000000e+00     
0.000000e+00     0.000000e+00     0.000000e+00     0.000000e+00     0.000000e+00     
0.000000e+00     0.000000e+00     0.000000e+00     0.000000e+00     0.000000e+00     
0.000000e+00     0.000000e+00     0.000000e+00     0.000000e+00     0.000000e+00     
0.000000e+00     0.000000e+00     0.000000e+00     0.000000e+00     0.000000e+00     
0.000000e+00     0.000000e+00     0.000000e+00     0.000000e+00     0.000000e+00     
0.000000e+00     0.000000e+00     0.000000e+00     0.000000e+00     0.000000e+00     
0.000000e+00     0.000000e+00     0.000000e+00     0.000000e+00     0.000000e+00     
0.000000e+00     0.000000e+00     0.000000e+00     0.000000e+00     0.000000e+00     
0.000000e+00     0.000000e+00     0.000000e+00     0.000000e+00     0.000000e+00     
0.000000e+00     0.000000e+00     0.000000e+00     0.000000e+00     0.000000e+00     
0.000000e+00     0.000000e+00     0.000000e+00     0.000000e+00     0.000000e+00     
0.000000e+00     0.000000e+00     0.000000e+00     

0      
1      0      0      0      0      0      0      0      0      0      
0      0      0      0      1      0      1      0      0      0      
1      0      0      0      0      0      1      0      0      0      
0      1      0      1      0      0      0      0      1      0      
0      0      0      0      0      0      0      1      0      1      
0      1      0      0      1      0      0      0      0      0      
0      0      1      0      0      0      1      0      1      1      
0      0      0      0      0      1      1      0      0      1      
0      0      1      0      0      0      1      1      1      0      
0      0      1      0      0      1      0      0      0      0      
0      0      0      0      1      0      0      1      0      0      
0      0      0      0      0      1      0      0      1      0      
0      1      0      0      0      0      0      0      0      0      
1      0      0      0      0      1      0      0      1      0      
0      1      0      0      0      

3      2      1      
3      2      4      
3      4      5      
4      2      13      
5      4      6      
5      6      7      
6      4      14      
7      6      8      
7      8      9      
8      6      15      
9      8      10      
9      10      11      
10      8      16      
11      10      12      
12      10      17      
4      13      14      
6      14      15      
14      13      20      
8      15      16      
15      14      21      
10      16      17      
16      15      22      
12      17      18      
17      16      23      
18      17      30      
14      20      21      
20      13      19      
20      19      26      
15      21      22      
21      20      27      
16      22      23      
22      21      28      
17      23      30      
23      22      29      
20      26      27      
26      19      25      
21      27      28      
27      26      33      
22      28      29      
28      27      34      
23      29      31      
29      28      35      
24      30      18      
24      30      32      
30      23      31      
30      31      32      
31      29      37      
27      33      34      
28      34      35      
34      33      39      
29      35      37      
35      34      40      
32      31      42      
37      35      46      
31      37      42      
34      39      40      
39      33      36      
39      36      41      
35      40      46      
40      39      44      
39      41      44      
42      37      47      
32      42      38      
38      42      50      
40      44      51      
44      41      43      
46      40      51      
37      46      47      
44      43      57      
47      46      56      
42      47      50      
38      50      45      
50      47      55      
45      50      54      
46      51      56      
51      44      57      
49      53      48      
49      53      52      
53      48      54      
52      53      59      
45      54      48      
54      50      55      
55      47      56      
54      55      63      
55      56      62      
56      51      60      
51      57      60      
57      43      58      
57      58      61      
53      54      63      
59      53      63      
56      60      62      
60      57      61      
60      61      66      
55      62      63      
62      60      66      
63      62      67      
59      63      67      
66      61      69      
62      66      67      
67      66      73      
59      67      68      
64      68      59      
64      68      71      
68      67      73      
66      69      73      
65      71      64      
65      71      74      
71      68      73      
73      69      72      
69      72      70      
71      73      72      
1      3       1      
3      5       3      
5      7       5      
7      9       7      
9      11       9      
61      58       61      
69      61       69      
70      69       70      
72      70       72      
74      71       74      
71      72       71      
2      1       2      
13      2       13      
19      13       19      
25      19       25      
26      25       26      
33      26       33      
36      33       36      
41      36       41      
43      41       43      
58      43       58      
49      52       49      
52      59       52      
59      64       59      
64      65       64      
65      74       65      
11      12       11      
12      18       12      
18      24       18      
24      32       24      
32      38       32      
38      45       38      
45      48       45      
48      49       48      
