Title = " tecplot out file" 
variables = "x", "y", "z", "velX", "velY", "velZ","density","pressure","viscosity","temperature", "collisionFrequency",
Zone T = "nmesh0" N = 121 E = 100 DATAPACKING = BLOCK, VARLOCATION = ([4-11]=CELLCENTERED),  ZONETYPE=FEQUADRILATERAL 
0.0    
0.0    
0.1    
0.1    
0.0    

0.1    
0.0    
0.1    
0.0    
0.1    

0.0    
0.1    
0.0    
0.1    
0.0    

0.1    
0.0    
0.1    
0.0    
0.1    

0.0    
0.1    
0.2    
0.2    
0.2    

0.2    
0.2    
0.2    
0.2    
0.2    

0.2    
0.2    
0.2    
0.3    
0.3    

0.3    
0.3    
0.3    
0.3    
0.3    

0.3    
0.3    
0.3    
0.3    
0.4    

0.4    
0.4    
0.4    
0.4    
0.4    

0.4    
0.4    
0.4    
0.4    
0.4    

0.5    
0.5    
0.5    
0.5    
0.5    

0.5    
0.5    
0.5    
0.5    
0.5    

0.5    
0.6    
0.6    
0.6    
0.6    

0.6    
0.6    
0.6    
0.6    
0.6    

0.6    
0.6    
0.7    
0.7    
0.7    

0.7    
0.7    
0.7    
0.7    
0.7    

0.7    
0.7    
0.7    
0.8    
0.8    

0.8    
0.8    
0.8    
0.8    
0.8    

0.8    
0.8    
0.8    
0.8    
0.9    

0.9    
0.9    
0.9    
0.9    
0.9    

0.9    
0.9    
0.9    
0.9    
0.9    

1.0    
1.0    
1.0    
1.0    
1.0    

1.0    
1.0    
1.0    
1.0    
1.0    

1.0    
1.0    
0.9    
1.0    
0.9    
0.8    

0.8    
0.7    
0.7    
0.6    
0.6    

0.5    
0.5    
0.4    
0.4    
0.3    

0.3    
0.2    
0.2    
0.1    
0.1    

0.0    
0.0    
1.0    
0.9    
0.8    

0.7    
0.6    
0.5    
0.4    
0.3    

0.2    
0.1    
0.0    
1.0    
0.9    

0.8    
0.7    
0.6    
0.5    
0.4    

0.3    
0.2    
0.1    
0.0    
1.0    

0.9    
0.8    
0.7    
0.6    
0.5    

0.4    
0.3    
0.2    
0.1    
0.0    

1.0    
0.9    
0.8    
0.7    
0.6    

0.5    
0.4    
0.3    
0.2    
0.1    

0.0    
1.0    
0.9    
0.8    
0.7    

0.6    
0.5    
0.4    
0.3    
0.2    

0.1    
0.0    
1.0    
0.9    
0.8    

0.7    
0.6    
0.5    
0.4    
0.3    

0.2    
0.1    
0.0    
1.0    
0.9    

0.8    
0.7    
0.6    
0.5    
0.4    

0.3    
0.2    
0.1    
0.0    
1.0    

0.9    
0.8    
0.7    
0.6    
0.5    

0.4    
0.3    
0.2    
0.1    
0.0    

0.9    
1.0    
0.8    
0.7    
0.6    

0.5    
0.4    
0.3    
0.2    
0.1    

0.0    
0.0    0.0    0.0    0.0    0.0    
0.0    0.0    0.0    0.0    0.0    
0.0    0.0    0.0    0.0    0.0    
0.0    0.0    0.0    0.0    0.0    
0.0    0.0    0.0    0.0    0.0    
0.0    0.0    0.0    0.0    0.0    
0.0    0.0    0.0    0.0    0.0    
0.0    0.0    0.0    0.0    0.0    
0.0    0.0    0.0    0.0    0.0    
0.0    0.0    0.0    0.0    0.0    
0.0    0.0    0.0    0.0    0.0    
0.0    0.0    0.0    0.0    0.0    
0.0    0.0    0.0    0.0    0.0    
0.0    0.0    0.0    0.0    0.0    
0.0    0.0    0.0    0.0    0.0    
0.0    0.0    0.0    0.0    0.0    
0.0    0.0    0.0    0.0    0.0    
0.0    0.0    0.0    0.0    0.0    
0.0    0.0    0.0    0.0    0.0    
0.0    0.0    0.0    0.0    0.0    
0.0    0.0    0.0    0.0    0.0    
0.0    0.0    0.0    0.0    0.0    
0.0    0.0    0.0    0.0    0.0    
0.0    0.0    0.0    0.0    0.0    
0.0    
0.00937962628572    0.00290921152354    0.0029081184199    0.00290811756841    0.00290811756767    
0.00290811756767    0.00290811756841    0.0029081184199    0.00290921152354    0.00937962628572    
0.0108513364521    1.53420091501e-05    7.17650514311e-06    7.17023127211e-06    7.1702258698e-06    
7.17022587017e-06    7.17023127227e-06    7.17650514227e-06    1.53420091502e-05    0.0108513364521    
0.0108497159702    8.189411433e-06    1.69135801429e-08    1.06327120737e-08    1.06273024826e-08    
1.0627302372e-08    1.06327121052e-08    1.69135808204e-08    8.18941143299e-06    0.0108497159702    
0.0108497122808    8.1788073246e-06    6.29988425158e-09    1.9004784969e-11    1.35953217021e-11    
1.35954014336e-11    1.9005368449e-11    6.29988511038e-09    8.17880732423e-06    0.0108497122808    
0.0108497122755    8.17879376354e-06    6.28631098162e-09    5.43114173676e-12    2.17678007991e-14    
2.18694075734e-14    5.43114867351e-12    6.28631160931e-09    8.17879376413e-06    0.0108497122755    
0.0108497122755    8.17879376287e-06    6.28631017682e-09    5.43050896264e-12    2.11443011336e-14    
2.10128626961e-14    5.43049784074e-12    6.28631079385e-09    8.17879376336e-06    0.0108497122755    
0.0108497122806    8.17880679911e-06    6.29935811184e-09    1.84785711008e-11    1.30687821033e-11    
1.30690359742e-11    1.84785628391e-11    6.29935827397e-09    8.17880679882e-06    0.0108497122806    
0.0108497158705    8.18906008796e-06    1.65617745694e-08    1.02809061738e-08    1.02754962553e-08    
1.0275496014e-08    1.02809061642e-08    1.65617746403e-08    8.18906008737e-06    0.0108497158705    
0.0108512983667    1.51414024512e-05    6.97560487413e-06    6.96933071853e-06    6.96932531597e-06    
6.96932531595e-06    6.96933071834e-06    6.97560487425e-06    1.51414024514e-05    0.0108512983667    
0.0093821177291    0.00283837307413    0.00283718873164    0.00283718781209    0.00283718781129    
0.00283718781129    0.00283718781209    0.00283718873164    0.00283837307413    0.00938211772909    

1.93670335863e-05    4.80917864668e-06    4.80630668574e-09    4.88133178445e-12    5.0506405372e-15    
-5.04964221479e-15    -4.88126728383e-12    -4.80630667199e-09    -4.80917864667e-06    -1.9367033585e-05    
1.6554053901e-06    2.15653578197e-09    2.55024875701e-12    3.2422909968e-15    1.0298679646e-17    
3.78638107258e-18    -3.1922866662e-15    -2.55018064691e-12    -2.15653567406e-09    -1.65540538896e-06    
1.62915412865e-06    -1.09386789701e-09    -2.77374623662e-12    -3.93745162728e-15    9.52473519834e-17    
6.52927581337e-17    4.00756977118e-15    2.77382614581e-12    1.09386799322e-09    -1.62915412788e-06    
1.62912455141e-06    -1.09822098729e-09    -2.78178319778e-12    -3.96232263758e-15    2.33251011321e-17    
1.04189871531e-16    3.97393626489e-15    2.78185166692e-12    1.09822109754e-09    -1.62912454971e-06    
1.62912451857e-06    -1.09822673908e-09    -2.78186082149e-12    -3.95636657411e-15    2.50283166444e-17    
4.45934270694e-17    4.04184366585e-15    2.78194124165e-12    1.09822690957e-09    -1.62912451739e-06    
1.62912451858e-06    -1.09822677724e-09    -2.78179112662e-12    -3.97352642855e-15    -2.55941020156e-17    
3.4905430481e-17    4.01206331306e-15    2.78191443928e-12    1.09822685787e-09    -1.6291245173e-06    
1.62912448687e-06    -1.09823242868e-09    -2.78184681061e-12    -3.93275632119e-15    4.10483537938e-18    
8.89016880899e-18    3.99343733906e-15    2.78188283312e-12    1.09823249568e-09    -1.62912448568e-06    
1.6290952296e-06    -1.10243986652e-09    -2.78964244694e-12    -3.91749132256e-15    4.8595535436e-17    
4.85210440689e-17    4.00225726038e-15    2.78966397214e-12    1.10243989514e-09    -1.62909522822e-06    
1.60262973819e-06    -4.26359088866e-09    -7.97996177732e-12    -1.09855190006e-14    -3.23242678356e-17    
1.5383192456e-17    1.09725502098e-14    7.98000783204e-12    4.26359088654e-09    -1.60262973633e-06    
-1.78298722021e-05    -4.8500539033e-06    -4.83559914228e-09    -4.90392638927e-12    -5.02310890727e-15    
5.08785419439e-15    4.90402229114e-12    4.83559915975e-09    4.85005390338e-06    1.78298722037e-05    

2.29971131104e-17    1.24149185638e-17    2.872232058e-18    2.37342265071e-17    2.36657118573e-17    
1.96160780264e-17    1.03478013517e-17    2.58300672828e-17    2.63013101806e-17    1.9916701049e-17    
2.9900656442e-17    3.36686809077e-17    4.26947606083e-17    1.98374691305e-17    2.45429851684e-17    
2.32145136292e-17    4.78045972469e-17    3.46399279888e-17    2.28322566408e-17    6.86481686286e-18    
2.5825150415e-17    2.31328610567e-17    3.38803778142e-17    3.458672121e-17    3.78966594967e-17    
1.82347313952e-17    1.74905870624e-17    1.07607074561e-17    3.78982249136e-17    1.82808746227e-17    
3.17472791952e-17    3.24217258782e-17    3.94783776562e-17    1.98159192869e-17    4.59870635185e-17    
2.85384305564e-17    9.89409439779e-18    2.71625004828e-17    3.35355226633e-17    1.56995802574e-17    
4.4768952406e-17    2.90539588601e-17    3.9290488667e-17    2.91883367976e-17    2.47317764756e-17    
2.49162382792e-17    3.15950127773e-17    1.4164266566e-17    2.79045260927e-17    1.7316983386e-17    
3.32311133181e-17    3.21363903272e-17    2.8849143032e-17    1.10599876322e-17    1.71930632483e-17    
8.97808206639e-18    1.56796742162e-17    3.40140234676e-17    2.23929543312e-17    2.15130533114e-17    
3.96474928641e-17    1.54184492229e-17    3.07945193037e-17    3.09742731777e-17    2.8282919576e-17    
3.20322474374e-17    3.53014980474e-17    4.03021065453e-17    1.88793684939e-17    2.09741687152e-18    
2.8902038629e-17    1.81603994835e-17    1.48967039693e-17    1.85731880331e-17    1.99130890256e-17    
1.63865813356e-17    3.01123254296e-17    1.88624277366e-17    3.98192880787e-17    2.6018268371e-17    
3.9674808101e-17    1.61290863511e-17    1.501150978e-17    2.0048553205e-17    3.05120936439e-17    
3.40966615938e-17    1.82254216726e-17    1.03673421557e-17    2.70804324551e-17    1.11129679919e-17    
3.31376380542e-17    3.80439636592e-17    3.1822888566e-17    3.4897336693e-17    5.20821266182e-17    
3.78932085856e-17    2.38445069613e-17    4.02200446233e-17    1.50243891083e-17    2.8494841695e-17    

0.989964848332    0.999380414348    0.99939219125    0.99939220001    0.999392200017    
0.999392200017    0.99939220001    0.99939219125    0.999380414348    0.989964848332    
0.999999395227    1.000003522    1.00000352687    1.00000352688    1.00000352688    
1.00000352688    1.00000352688    1.00000352687    1.000003522    0.999999395227    
0.999999710237    0.999999592223    0.999999591665    0.999999591663    0.999999591663    
0.999999591663    0.999999591663    0.999999591665    0.999999592223    0.999999710237    
0.999999706144    0.999999585527    0.999999584962    0.999999584961    0.999999584961    
0.999999584961    0.999999584961    0.999999584962    0.999999585527    0.999999706144    
0.999999706138    0.999999585519    0.999999584954    0.999999584952    0.999999584952    
0.999999584952    0.999999584952    0.999999584954    0.999999585519    0.999999706138    
0.999999706138    0.999999585519    0.999999584954    0.999999584952    0.999999584952    
0.999999584952    0.999999584952    0.999999584954    0.999999585519    0.999999706138    
0.999999706132    0.999999585511    0.999999584946    0.999999584944    0.999999584944    
0.999999584944    0.999999584944    0.999999584946    0.999999585511    0.999999706132    
0.99999970214    0.999999579003    0.999999578432    0.999999578431    0.999999578431    
0.999999578431    0.999999578431    0.999999578432    0.999999579003    0.99999970214    
1.00000005019    0.999995744177    0.999995738299    0.999995738292    0.999995738292    
0.999995738292    0.999995738292    0.999995738299    0.999995744177    1.00000005019    
1.01019541175    1.00060610977    1.00059420706    1.00059419823    1.00059419822    
1.00059419822    1.00059419823    1.00059420706    1.00060610977    1.01019541175    

0.991711937695    1.00312325482    1.00313813312    1.00313814583    1.00313814584    
1.00313814584    1.00313814583    1.00313813312    1.00312325482    0.991711937695    
1.00007479905    1.00001766621    1.0000175677    1.00001756762    1.00001756762    
1.00001756762    1.00001756762    1.0000175677    1.00001766621    1.00007479905    
1.00007280235    1.00000736811    1.00000725834    1.00000725825    1.00000725825    
1.00000725825    1.00000725825    1.00000725834    1.00000736811    1.00007280235    
1.00007279466    1.00000735195    1.00000724216    1.00000724207    1.00000724207    
1.00000724207    1.00000724207    1.00000724216    1.00000735195    1.00007279466    
1.00007279464    1.00000735193    1.00000724214    1.00000724205    1.00000724205    
1.00000724205    1.00000724205    1.00000724214    1.00000735193    1.00007279464    
1.00007279464    1.00000735193    1.00000724214    1.00000724205    1.00000724205    
1.00000724205    1.00000724205    1.00000724214    1.00000735193    1.00007279464    
1.00007279463    1.00000735191    1.00000724212    1.00000724203    1.00000724203    
1.00000724203    1.00000724203    1.00000724212    1.00000735191    1.00007279463    
1.00007278706    1.00000733633    1.00000722652    1.00000722643    1.00000722643    
1.00000722643    1.00000722643    1.00000722652    1.00000733633    1.00007278706    
1.00007082495    0.999997355173    0.999997234643    0.999997234543    0.999997234543    
0.999997234543    0.999997234543    0.999997234643    0.999997355173    1.00007082495    
1.0086121421    0.996966372749    0.996951328435    0.996951315616    0.996951315604    
0.996951315604    0.996951315616    0.996951328435    0.996966372749    1.0086121421    

2.25349268917e-07    2.25710045532e-07    2.25710602735e-07    2.25710603449e-07    2.2571060345e-07    
2.2571060345e-07    2.25710603449e-07    2.25710602735e-07    2.25710045532e-07    2.25349268917e-07    
2.25041392542e-07    2.25030226684e-07    2.25030207839e-07    2.25030207825e-07    2.25030207825e-07    
2.25030207825e-07    2.25030207825e-07    2.25030207839e-07    2.25030226684e-07    2.25041392542e-07    
2.25040971183e-07    2.25029065926e-07    2.25029046019e-07    2.25029046003e-07    2.25029046003e-07    
2.25029046003e-07    2.25029046003e-07    2.25029046019e-07    2.25029065926e-07    2.25040971183e-07    
2.25040970526e-07    2.25029064201e-07    2.25029044292e-07    2.25029044276e-07    2.25029044276e-07    
2.25029044276e-07    2.25029044276e-07    2.25029044292e-07    2.25029064201e-07    2.25040970526e-07    
2.25040970525e-07    2.25029064199e-07    2.2502904429e-07    2.25029044274e-07    2.25029044274e-07    
2.25029044274e-07    2.25029044274e-07    2.2502904429e-07    2.25029064199e-07    2.25040970525e-07    
2.25040970525e-07    2.25029064199e-07    2.2502904429e-07    2.25029044274e-07    2.25029044274e-07    
2.25029044274e-07    2.25029044274e-07    2.2502904429e-07    2.25029064199e-07    2.25040970525e-07    
2.25040970524e-07    2.25029064196e-07    2.25029044287e-07    2.25029044272e-07    2.25029044272e-07    
2.25029044272e-07    2.25029044272e-07    2.25029044287e-07    2.25029064196e-07    2.25040970524e-07    
2.25040969872e-07    2.25029062542e-07    2.25029042631e-07    2.25029042616e-07    2.25029042616e-07    
2.25029042616e-07    2.25029042616e-07    2.25029042631e-07    2.25029062542e-07    2.25040969872e-07    
2.25040548793e-07    2.25027942238e-07    2.2502792134e-07    2.25027921323e-07    2.25027921323e-07    
2.25027921323e-07    2.25027921323e-07    2.2502792134e-07    2.25027942238e-07    2.25040548793e-07    
2.24741932246e-07    2.24364397426e-07    2.24363816851e-07    2.24363816118e-07    2.24363816117e-07    
2.24363816117e-07    2.24363816118e-07    2.24363816851e-07    2.24364397426e-07    2.24741932246e-07    

1.00176479939    1.00374516092    1.00374822007    1.00374822399    1.003748224    
1.003748224    1.00374822399    1.00374822007    1.00374516092    1.00176479939    
1.00007540387    1.00001414416    1.00001404078    1.0000140407    1.0000140407    
1.0000140407    1.0000140407    1.00001404078    1.00001414416    1.00007540387    
1.00007309214    1.00000777589    1.00000766668    1.00000766659    1.00000766659    
1.00000766659    1.00000766659    1.00000766668    1.00000777589    1.00007309214    
1.00007308853    1.00000776643    1.0000076572    1.00000765712    1.00000765712    
1.00000765712    1.00000765712    1.0000076572    1.00000776643    1.00007308853    
1.00007308853    1.00000776641    1.00000765719    1.0000076571    1.0000076571    
1.0000076571    1.0000076571    1.00000765719    1.00000776641    1.00007308853    
1.00007308853    1.00000776641    1.00000765719    1.0000076571    1.0000076571    
1.0000076571    1.0000076571    1.00000765719    1.00000776641    1.00007308853    
1.00007308852    1.0000077664    1.00000765717    1.00000765709    1.00000765709    
1.00000765709    1.00000765709    1.00000765717    1.0000077664    1.00007308852    
1.00007308494    1.00000775733    1.00000764809    1.000007648    1.000007648    
1.000007648    1.000007648    1.00000764809    1.00000775733    1.00007308494    
1.00007077475    1.000001611    1.00000149635    1.00000149626    1.00000149626    
1.00000149626    1.00000149626    1.00000149635    1.000001611    1.00007077475    
0.998432709524    0.996362467721    0.996359284718    0.9963592807    0.996359280695    
0.996359280695    0.9963592807    0.996359284718    0.996362467721    0.998432709524    

1227.50620034    1239.64609604    1239.66142213    1239.66143391    1239.66143393    
1239.66143393    1239.66143391    1239.66142213    1239.64609604    1227.50620034    
1239.550954    1239.54164245    1239.54162414    1239.54162413    1239.54162413    
1239.54162413    1239.54162413    1239.54162414    1239.54164245    1239.550954    
1239.55080006    1239.53527156    1239.53524515    1239.53524513    1239.53524513    
1239.53524513    1239.53524513    1239.53524515    1239.53527156    1239.55080006    
1239.55079414    1239.53526103    1239.53523461    1239.53523459    1239.53523459    
1239.53523459    1239.53523459    1239.53523461    1239.53526103    1239.55079414    
1239.55079413    1239.53526102    1239.5352346    1239.53523457    1239.53523457    
1239.53523457    1239.53523457    1239.5352346    1239.53526102    1239.55079413    
1239.55079413    1239.53526102    1239.5352346    1239.53523457    1239.53523457    
1239.53523457    1239.53523457    1239.5352346    1239.53526102    1239.55079413    
1239.55079412    1239.53526101    1239.53523458    1239.53523456    1239.53523456    
1239.53523456    1239.53523456    1239.53523458    1239.53526101    1239.55079412    
1239.55078833    1239.5352508    1239.53522437    1239.53522435    1239.53522435    
1239.53522435    1239.53522435    1239.53522437    1239.5352508    1239.55078833    
1239.55067571    1239.52904988    1239.52901559    1239.52901556    1239.52901556    
1239.52901556    1239.52901556    1239.52901559    1239.52904988    1239.55067571    
1251.79838962    1239.426774    1239.41127809    1239.4112662    1239.41126619    
1239.41126619    1239.4112662    1239.41127809    1239.426774    1251.79838962    

2     4     3     1     4     2     5     6     6     5     7     8     8     7     9     10     10     9     11     12     12     11     13     14     14     13     15     16     16     15     17     18     18     17     19     20     20     19     21     22     3     4     24     23     4     6     25     24     6     8     26     25     8     10     27     26     10     12     28     27     12     14     29     28     14     16     30     29     16     18     31     30     18     20     32     31     20     22     33     32     23     24     35     34     24     25     36     35     25     26     37     36     26     27     38     37     27     28     39     38     28     29     40     39     29     30     41     40     30     31     42     41     31     32     43     42     32     33     44     43     34     35     46     45     35     36     47     46     36     37     48     47     37     38     49     48     38     39     50     49     39     40     51     50     40     41     52     51     41     42     53     52     42     43     54     53     43     44     55     54     45     46     57     56     46     47     58     57     47     48     59     58     48     49     60     59     49     50     61     60     50     51     62     61     51     52     63     62     52     53     64     63     53     54     65     64     54     55     66     65     56     57     68     67     57     58     69     68     58     59     70     69     59     60     71     70     60     61     72     71     61     62     73     72     62     63     74     73     63     64     75     74     64     65     76     75     65     66     77     76     67     68     79     78     68     69     80     79     69     70     81     80     70     71     82     81     71     72     83     82     72     73     84     83     73     74     85     84     74     75     86     85     75     76     87     86     76     77     88     87     78     79     90     89     79     80     91     90     80     81     92     91     81     82     93     92     82     83     94     93     83     84     95     94     84     85     96     95     85     86     97     96     86     87     98     97     87     88     99     98     89     90     101     100     90     91     102     101     91     92     103     102     92     93     104     103     93     94     105     104     94     95     106     105     95     96     107     106     96     97     108     107     97     98     109     108     98     99     110     109     100     101     111     112     101     102     113     111     102     103     114     113     103     104     115     114     104     105     116     115     105     106     117     116     106     107     118     117     107     108     119     118     108     109     120     119     109     110     121     120     

