Title = " tecplot out file" 
variables = "x", "y", "z", "velX", "velY", "velZ","density","pressure","viscosity","temperature", "collisionFrequency",
Zone T = "nmesh0" N = 121 E = 100 DATAPACKING = BLOCK, VARLOCATION = ([4-11]=CELLCENTERED),  ZONETYPE=FEQUADRILATERAL 
0.0    
0.0    
0.1    
0.1    
0.0    

0.1    
0.0    
0.1    
0.0    
0.1    

0.0    
0.1    
0.0    
0.1    
0.0    

0.1    
0.0    
0.1    
0.0    
0.1    

0.0    
0.1    
0.2    
0.2    
0.2    

0.2    
0.2    
0.2    
0.2    
0.2    

0.2    
0.2    
0.2    
0.3    
0.3    

0.3    
0.3    
0.3    
0.3    
0.3    

0.3    
0.3    
0.3    
0.3    
0.4    

0.4    
0.4    
0.4    
0.4    
0.4    

0.4    
0.4    
0.4    
0.4    
0.4    

0.5    
0.5    
0.5    
0.5    
0.5    

0.5    
0.5    
0.5    
0.5    
0.5    

0.5    
0.6    
0.6    
0.6    
0.6    

0.6    
0.6    
0.6    
0.6    
0.6    

0.6    
0.6    
0.7    
0.7    
0.7    

0.7    
0.7    
0.7    
0.7    
0.7    

0.7    
0.7    
0.7    
0.8    
0.8    

0.8    
0.8    
0.8    
0.8    
0.8    

0.8    
0.8    
0.8    
0.8    
0.9    

0.9    
0.9    
0.9    
0.9    
0.9    

0.9    
0.9    
0.9    
0.9    
0.9    

1.0    
1.0    
1.0    
1.0    
1.0    

1.0    
1.0    
1.0    
1.0    
1.0    

1.0    
1.0    
0.9    
1.0    
0.9    
0.8    

0.8    
0.7    
0.7    
0.6    
0.6    

0.5    
0.5    
0.4    
0.4    
0.3    

0.3    
0.2    
0.2    
0.1    
0.1    

0.0    
0.0    
1.0    
0.9    
0.8    

0.7    
0.6    
0.5    
0.4    
0.3    

0.2    
0.1    
0.0    
1.0    
0.9    

0.8    
0.7    
0.6    
0.5    
0.4    

0.3    
0.2    
0.1    
0.0    
1.0    

0.9    
0.8    
0.7    
0.6    
0.5    

0.4    
0.3    
0.2    
0.1    
0.0    

1.0    
0.9    
0.8    
0.7    
0.6    

0.5    
0.4    
0.3    
0.2    
0.1    

0.0    
1.0    
0.9    
0.8    
0.7    

0.6    
0.5    
0.4    
0.3    
0.2    

0.1    
0.0    
1.0    
0.9    
0.8    

0.7    
0.6    
0.5    
0.4    
0.3    

0.2    
0.1    
0.0    
1.0    
0.9    

0.8    
0.7    
0.6    
0.5    
0.4    

0.3    
0.2    
0.1    
0.0    
1.0    

0.9    
0.8    
0.7    
0.6    
0.5    

0.4    
0.3    
0.2    
0.1    
0.0    

0.9    
1.0    
0.8    
0.7    
0.6    

0.5    
0.4    
0.3    
0.2    
0.1    

0.0    
0.0    0.0    0.0    0.0    0.0    
0.0    0.0    0.0    0.0    0.0    
0.0    0.0    0.0    0.0    0.0    
0.0    0.0    0.0    0.0    0.0    
0.0    0.0    0.0    0.0    0.0    
0.0    0.0    0.0    0.0    0.0    
0.0    0.0    0.0    0.0    0.0    
0.0    0.0    0.0    0.0    0.0    
0.0    0.0    0.0    0.0    0.0    
0.0    0.0    0.0    0.0    0.0    
0.0    0.0    0.0    0.0    0.0    
0.0    0.0    0.0    0.0    0.0    
0.0    0.0    0.0    0.0    0.0    
0.0    0.0    0.0    0.0    0.0    
0.0    0.0    0.0    0.0    0.0    
0.0    0.0    0.0    0.0    0.0    
0.0    0.0    0.0    0.0    0.0    
0.0    0.0    0.0    0.0    0.0    
0.0    0.0    0.0    0.0    0.0    
0.0    0.0    0.0    0.0    0.0    
0.0    0.0    0.0    0.0    0.0    
0.0    0.0    0.0    0.0    0.0    
0.0    0.0    0.0    0.0    0.0    
0.0    0.0    0.0    0.0    0.0    
0.0    
0.00980475732509    0.00291462109698    0.0029142424855    0.00291424233625    0.00291424233617    
0.00291424233617    0.00291424233625    0.0029142424855    0.00291462109698    0.00980475732509    
0.0102929764832    5.14000984457e-06    2.41680979809e-06    2.41573643006e-06    2.41573586521e-06    
2.41573586516e-06    2.4157364297e-06    2.41680979772e-06    5.14000984471e-06    0.0102929764832    
0.0102917870123    2.72675836895e-06    2.88503937562e-09    1.81127251189e-09    1.81070762739e-09    
1.81070784142e-09    1.81127279661e-09    2.8850392423e-09    2.72675836975e-06    0.0102917870123    
0.0102917861198    2.72494982093e-06    1.07573548828e-09    1.96798057999e-12    1.40283150783e-12    
1.40308319015e-12    1.96812545182e-12    1.07573495189e-09    2.72494982134e-06    0.0102917861198    
0.0102917861191    2.72494842027e-06    1.07433413964e-09    5.66912881685e-13    1.43192475394e-15    
1.55141085331e-15    5.66673760437e-13    1.0743335677e-09    2.72494842084e-06    0.0102917861191    
0.0102917861191    2.72494842031e-06    1.07433411139e-09    5.66825442921e-13    1.44530820477e-15    
1.54898593151e-15    5.666632709e-13    1.07433355446e-09    2.72494842072e-06    0.0102917861191    
0.0102917861198    2.72494976601e-06    1.07568058859e-09    1.91341523005e-12    1.34797963178e-12    
1.34791625903e-12    1.91330863493e-12    1.07568014429e-09    2.72494976636e-06    0.0102917861198    
0.0102917869828    2.72669788065e-06    2.82451992323e-09    1.75075313553e-09    1.75018764442e-09    
1.75018758105e-09    1.7507528624e-09    2.82451931066e-09    2.72669788089e-06    0.0102917869828    
0.0102929430667    5.07148293096e-06    2.34825679218e-06    2.34718340967e-06    2.34718284462e-06    
2.3471828444e-06    2.3471834095e-06    2.348256792e-06    5.07148293161e-06    0.0102929430667    
0.00980829146402    0.00284339919926    0.00284299252439    0.00284299236408    0.00284299236399    
0.00284299236399    0.00284299236408    0.00284299252439    0.00284339919926    0.00980829146402    

6.91803873821e-06    1.36208141942e-06    7.18703732417e-10    4.54031649278e-13    3.49242107971e-16    
-2.89265924145e-16    -4.53994611167e-13    -7.18703649681e-10    -1.36208141929e-06    -6.91803873716e-06    
6.03386497555e-07    -1.01096209438e-10    -8.3125695329e-14    -3.98519176709e-17    5.18125394224e-17    
4.1263190378e-17    1.30382179236e-16    8.32078374371e-14    1.01096261086e-10    -6.03386496676e-07    
6.01484404332e-07    -4.14540548157e-10    -3.31996057325e-13    -2.53701926769e-16    -2.51022749343e-19    
7.01831056369e-19    2.66922349767e-16    3.32034669604e-13    4.14540610742e-10    -6.01484403209e-07    
6.01483647723e-07    -4.14937714709e-10    -3.32410706467e-13    -2.83384925126e-16    -1.73297288572e-17    
6.05753890622e-18    2.75578512588e-16    3.32459073773e-13    4.14937780023e-10    -6.01483646537e-07    
6.01483647123e-07    -4.14938132523e-10    -3.32434939137e-13    -2.81050503758e-16    6.61979053687e-18    
-4.08605158473e-18    2.78357736257e-16    3.32450560066e-13    4.14938223715e-10    -6.01483646245e-07    
6.0148364694e-07    -4.14938127659e-10    -3.32405324611e-13    -2.51214471674e-16    -5.59983842265e-18    
2.76149700485e-17    2.88078881185e-16    3.32452224016e-13    4.14938239725e-10    -6.01483646185e-07    
6.01483646533e-07    -4.14938516481e-10    -3.32433078296e-13    -2.78980087865e-16    -5.60642937294e-18    
2.7587723162e-17    3.15851378954e-16    3.32452218649e-13    4.14938600532e-10    -6.01483645705e-07    
6.0148292886e-07    -4.15324541703e-10    -3.32834664694e-13    -2.50790936799e-16    6.37825424763e-17    
2.06488258398e-17    3.15837826691e-16    3.32896308446e-13    4.15324597971e-10    -6.01482928116e-07    
5.99651895432e-07    -7.21094633022e-10    -5.75538582736e-13    -4.64637326239e-16    2.27511185366e-17    
3.51184689921e-17    5.03735102715e-16    5.75570922762e-13    7.21094677773e-10    -5.99651894601e-07    
-6.37910664954e-06    -1.36190808281e-06    -7.18673443786e-10    -4.54007689039e-13    -3.12417952318e-16    
3.17157107721e-16    4.54034363876e-13    7.18673481449e-10    1.36190808289e-06    6.37910665086e-06    

2.36030619226e-17    2.50447523252e-17    1.24168138801e-17    1.37169426076e-17    1.77054970537e-17    
3.82488765988e-18    8.29519784286e-18    1.24168138801e-17    3.16914909563e-17    1.83377378418e-17    
2.88680412859e-17    3.12479280781e-17    2.68334099514e-17    1.96844844078e-17    3.18242028377e-17    
3.39274408759e-17    2.78183941918e-17    2.35411532838e-17    1.81591174649e-17    9.82694275963e-18    
4.41191778895e-17    3.28423789799e-17    2.72869876663e-17    1.51477267356e-17    2.05687132917e-17    
2.51919988749e-17    2.46341672503e-17    2.22555862563e-17    2.43443386188e-17    9.72593714222e-19    
3.19060817105e-17    3.58208708533e-17    3.20573822884e-17    2.77189936968e-17    1.18434486214e-17    
2.02629080002e-17    2.30700449788e-17    1.76352775753e-17    2.22472329978e-17    1.02630619809e-17    
2.78921964987e-17    4.24239366146e-17    1.92538471175e-17    1.84717896549e-17    4.5929286101e-18    
6.83585644885e-18    2.21078206223e-17    1.56799275071e-17    1.99748215271e-17    1.83104706812e-17    
3.81471767696e-17    2.89719999744e-17    2.2846522515e-17    1.77846040653e-17    5.63441254892e-18    
1.30278611167e-17    2.22875282022e-17    1.53438158582e-17    2.25401636292e-17    5.02995615299e-18    
2.62246379577e-17    2.89694198167e-17    2.30592886403e-17    1.78646435387e-17    1.93807266577e-17    
1.99664207142e-17    3.61696710112e-17    2.95491563109e-17    2.27013607812e-17    2.05302583417e-17    
4.16203428055e-17    4.30365256789e-17    1.9597620162e-17    1.78643987129e-17    1.93807266791e-17    
1.99664174024e-17    2.18582481913e-17    2.78144452277e-17    2.27013607029e-17    3.35351054143e-18    
4.04494392913e-17    2.59768690118e-17    1.27721244519e-17    1.78293949567e-17    1.08227881609e-17    
1.12301466689e-17    1.07986715895e-17    1.38475302959e-17    1.06481289045e-17    1.79234963245e-17    
3.66031237993e-17    2.98307142661e-17    3.25931167802e-17    1.36735195226e-17    4.35939700428e-17    
3.63980142058e-17    1.5359396843e-17    3.36357608797e-17    3.59547463236e-17    3.65850185853e-17    

0.993586813409    0.999793481832    0.999796723349    0.99979672463    0.99979672463    
0.99979672463    0.99979672463    0.999796723349    0.999793481832    0.993586813409    
1.00000082455    1.00000084775    1.0000008479    1.0000008479    1.0000008479    
1.0000008479    1.0000008479    1.0000008479    1.00000084775    1.00000082455    
0.999999508337    0.999999505679    0.999999505463    0.999999505463    0.999999505463    
0.999999505463    0.999999505463    0.999999505463    0.999999505679    0.999999508337    
0.999999507218    0.999999504544    0.999999504328    0.999999504328    0.999999504328    
0.999999504328    0.999999504328    0.999999504328    0.999999504544    0.999999507218    
0.999999507217    0.999999504543    0.999999504327    0.999999504327    0.999999504327    
0.999999504327    0.999999504327    0.999999504327    0.999999504543    0.999999507217    
0.999999507217    0.999999504543    0.999999504327    0.999999504327    0.999999504327    
0.999999504327    0.999999504327    0.999999504327    0.999999504543    0.999999507217    
0.999999507216    0.999999504542    0.999999504326    0.999999504326    0.999999504326    
0.999999504326    0.999999504326    0.999999504326    0.999999504542    0.999999507216    
0.999999506129    0.999999503439    0.999999503223    0.999999503222    0.999999503222    
0.999999503222    0.999999503222    0.999999503223    0.999999503439    0.999999506129    
0.99999822249    0.999998194293    0.999998193713    0.999998193713    0.999998193713    
0.999998193713    0.999998193713    0.999998193713    0.999998194293    0.99999822249    
1.00641099019    1.00020109169    1.00019784932    1.00019784804    1.00019784804    
1.00019784804    1.00019784804    1.00019784932    1.00020109169    1.00641099019    

0.995376775444    1.00339981027    1.0034040013    1.00340400319    1.00340400319    
1.00340400319    1.00340400319    1.0034040013    1.00339981027    0.995376775444    
1.00007502171    1.00000995352    1.00000991789    1.00000991788    1.00000991788    
1.00000991788    1.00000991788    1.00000991789    1.00000995352    1.00007502171    
1.00007267099    1.00000647637    1.00000643967    1.00000643965    1.00000643965    
1.00000643965    1.00000643965    1.00000643967    1.00000647637    1.00007267099    
1.00007266909    1.00000647362    1.00000643691    1.0000064369    1.0000064369    
1.0000064369    1.0000064369    1.00000643691    1.00000647362    1.00007266909    
1.00007266908    1.00000647362    1.00000643691    1.0000064369    1.0000064369    
1.0000064369    1.0000064369    1.00000643691    1.00000647362    1.00007266908    
1.00007266908    1.00000647362    1.00000643691    1.0000064369    1.0000064369    
1.0000064369    1.0000064369    1.00000643691    1.00000647362    1.00007266908    
1.00007266908    1.00000647362    1.00000643691    1.0000064369    1.0000064369    
1.0000064369    1.0000064369    1.00000643691    1.00000647362    1.00007266908    
1.00007266722    1.00000647097    1.00000643426    1.00000643424    1.00000643424    
1.00000643424    1.00000643424    1.00000643426    1.00000647097    1.00007266722    
1.00007035446    1.0000031021    1.00000306436    1.00000306435    1.00000306435    
1.00000306435    1.00000306435    1.00000306436    1.0000031021    1.00007035446    
1.00478410823    0.996697308698    0.99669310629    0.996693104389    0.996693104388    
0.996693104388    0.996693104389    0.99669310629    0.996697308698    1.00478410823    

2.25355958983e-07    2.25684893524e-07    2.25685064381e-07    2.25685064492e-07    2.25685064492e-07    
2.25685064492e-07    2.25685064492e-07    2.25685064381e-07    2.25684893524e-07    2.25355958983e-07    
2.25041172584e-07    2.25029308325e-07    2.25029301802e-07    2.250293018e-07    2.250293018e-07    
2.250293018e-07    2.250293018e-07    2.25029301802e-07    2.25029308325e-07    2.25041172584e-07    
2.25040984042e-07    2.25028919162e-07    2.2502891251e-07    2.25028912507e-07    2.25028912507e-07    
2.25028912507e-07    2.25028912507e-07    2.2502891251e-07    2.25028919162e-07    2.25040984042e-07    
2.250409839e-07    2.25028918868e-07    2.25028912216e-07    2.25028912213e-07    2.25028912213e-07    
2.25028912213e-07    2.25028912213e-07    2.25028912216e-07    2.25028918868e-07    2.250409839e-07    
2.25040983899e-07    2.25028918867e-07    2.25028912216e-07    2.25028912213e-07    2.25028912213e-07    
2.25028912213e-07    2.25028912213e-07    2.25028912216e-07    2.25028918867e-07    2.25040983899e-07    
2.25040983899e-07    2.25028918867e-07    2.25028912216e-07    2.25028912213e-07    2.25028912213e-07    
2.25028912213e-07    2.25028912213e-07    2.25028912216e-07    2.25028918867e-07    2.25040983899e-07    
2.25040983899e-07    2.25028918867e-07    2.25028912215e-07    2.25028912213e-07    2.25028912213e-07    
2.25028912213e-07    2.25028912213e-07    2.25028912215e-07    2.25028918867e-07    2.25040983899e-07    
2.25040983758e-07    2.25028918585e-07    2.25028911933e-07    2.25028911931e-07    2.25028911931e-07    
2.25028911931e-07    2.25028911931e-07    2.25028911933e-07    2.25028918585e-07    2.25040983758e-07    
2.25040796198e-07    2.25028543156e-07    2.25028536383e-07    2.2502853638e-07    2.2502853638e-07    
2.2502853638e-07    2.2502853638e-07    2.25028536383e-07    2.25028543156e-07    2.25040796198e-07    
2.24732956624e-07    2.24388921289e-07    2.24388744148e-07    2.24388744034e-07    2.24388744034e-07    
2.24388744034e-07    2.24388744034e-07    2.24388744148e-07    2.24388921289e-07    2.24732956624e-07    

1.00180151549    1.00360707336    1.00360801137    1.00360801198    1.00360801198    
1.00360801198    1.00360801198    1.00360801137    1.00360707336    1.00180151549    
1.0000741971    1.00000910576    1.00000906998    1.00000906996    1.00000906996    
1.00000906996    1.00000906996    1.00000906998    1.00000910576    1.0000741971    
1.00007316269    1.0000069707    1.00000693421    1.00000693419    1.00000693419    
1.00000693419    1.00000693419    1.00000693421    1.0000069707    1.00007316269    
1.0000731619    1.00000696908    1.00000693259    1.00000693258    1.00000693258    
1.00000693258    1.00000693258    1.00000693259    1.00000696908    1.0000731619    
1.0000731619    1.00000696908    1.00000693259    1.00000693257    1.00000693257    
1.00000693257    1.00000693257    1.00000693259    1.00000696908    1.0000731619    
1.0000731619    1.00000696908    1.00000693259    1.00000693257    1.00000693257    
1.00000693257    1.00000693257    1.00000693259    1.00000696908    1.0000731619    
1.0000731619    1.00000696908    1.00000693259    1.00000693257    1.00000693257    
1.00000693257    1.00000693257    1.00000693259    1.00000696908    1.0000731619    
1.00007316113    1.00000696753    1.00000693104    1.00000693103    1.00000693103    
1.00000693103    1.00000693103    1.00000693104    1.00000696753    1.00007316113    
1.0000721321    1.00000490782    1.00000487066    1.00000487064    1.00000487064    
1.00000487064    1.00000487064    1.00000487066    1.00000490782    1.0000721321    
0.998383481525    0.996496921445    0.996495950245    0.996495949621    0.996495949621    
0.996495949621    0.996495949621    0.996495950245    0.996496921445    0.998383481525    

1232.00583254    1240.126053    1240.13029395    1240.13029568    1240.13029568    
1240.13029568    1240.13029568    1240.13029395    1240.126053    1232.00583254    
1239.55244152    1239.53714103    1239.53713279    1239.53713279    1239.53713279    
1239.53713279    1239.53713279    1239.53713279    1239.53714103    1239.55244152    
1239.55056641    1239.53497466    1239.53496579    1239.53496579    1239.53496579    
1239.53496579    1239.53496579    1239.53496579    1239.53497466    1239.55056641    
1239.55056484    1239.53497287    1239.53496401    1239.534964    1239.534964    
1239.534964    1239.534964    1239.53496401    1239.53497287    1239.55056484    
1239.55056484    1239.53497287    1239.53496401    1239.534964    1239.534964    
1239.534964    1239.534964    1239.53496401    1239.53497287    1239.55056484    
1239.55056484    1239.53497287    1239.53496401    1239.534964    1239.534964    
1239.534964    1239.534964    1239.53496401    1239.53497287    1239.55056484    
1239.55056483    1239.53497287    1239.534964    1239.534964    1239.534964    
1239.534964    1239.534964    1239.534964    1239.53497287    1239.55056483    
1239.5505633    1239.53497113    1239.53496227    1239.53496227    1239.53496227    
1239.53496227    1239.53496227    1239.53496227    1239.53497113    1239.5505633    
1239.54872984    1239.53286332    1239.53285385    1239.53285384    1239.53285384    
1239.53285384    1239.53285384    1239.53285385    1239.53286332    1239.54872984    
1247.09718526    1238.95685147    1238.95260569    1238.95260396    1238.95260396    
1238.95260396    1238.95260396    1238.95260569    1238.95685147    1247.09718526    

2     4     3     1     4     2     5     6     6     5     7     8     8     7     9     10     10     9     11     12     12     11     13     14     14     13     15     16     16     15     17     18     18     17     19     20     20     19     21     22     3     4     24     23     4     6     25     24     6     8     26     25     8     10     27     26     10     12     28     27     12     14     29     28     14     16     30     29     16     18     31     30     18     20     32     31     20     22     33     32     23     24     35     34     24     25     36     35     25     26     37     36     26     27     38     37     27     28     39     38     28     29     40     39     29     30     41     40     30     31     42     41     31     32     43     42     32     33     44     43     34     35     46     45     35     36     47     46     36     37     48     47     37     38     49     48     38     39     50     49     39     40     51     50     40     41     52     51     41     42     53     52     42     43     54     53     43     44     55     54     45     46     57     56     46     47     58     57     47     48     59     58     48     49     60     59     49     50     61     60     50     51     62     61     51     52     63     62     52     53     64     63     53     54     65     64     54     55     66     65     56     57     68     67     57     58     69     68     58     59     70     69     59     60     71     70     60     61     72     71     61     62     73     72     62     63     74     73     63     64     75     74     64     65     76     75     65     66     77     76     67     68     79     78     68     69     80     79     69     70     81     80     70     71     82     81     71     72     83     82     72     73     84     83     73     74     85     84     74     75     86     85     75     76     87     86     76     77     88     87     78     79     90     89     79     80     91     90     80     81     92     91     81     82     93     92     82     83     94     93     83     84     95     94     84     85     96     95     85     86     97     96     86     87     98     97     87     88     99     98     89     90     101     100     90     91     102     101     91     92     103     102     92     93     104     103     93     94     105     104     94     95     106     105     95     96     107     106     96     97     108     107     97     98     109     108     98     99     110     109     100     101     111     112     101     102     113     111     102     103     114     113     103     104     115     114     104     105     116     115     105     106     117     116     106     107     118     117     107     108     119     118     108     109     120     119     109     110     121     120     

