Title = " tecplot out file" 
variables = "x", "y", "z", "velX", "velY", "velZ","density","pressure","viscosity","temperature", "collisionFrequency",
Zone T = "nmesh0" N = 121 E = 100 DATAPACKING = BLOCK, VARLOCATION = ([4-11]=CELLCENTERED),  ZONETYPE=FEQUADRILATERAL 
0.0    
0.0    
0.1    
0.1    
0.0    

0.1    
0.0    
0.1    
0.0    
0.1    

0.0    
0.1    
0.0    
0.1    
0.0    

0.1    
0.0    
0.1    
0.0    
0.1    

0.0    
0.1    
0.2    
0.2    
0.2    

0.2    
0.2    
0.2    
0.2    
0.2    

0.2    
0.2    
0.2    
0.3    
0.3    

0.3    
0.3    
0.3    
0.3    
0.3    

0.3    
0.3    
0.3    
0.3    
0.4    

0.4    
0.4    
0.4    
0.4    
0.4    

0.4    
0.4    
0.4    
0.4    
0.4    

0.5    
0.5    
0.5    
0.5    
0.5    

0.5    
0.5    
0.5    
0.5    
0.5    

0.5    
0.6    
0.6    
0.6    
0.6    

0.6    
0.6    
0.6    
0.6    
0.6    

0.6    
0.6    
0.7    
0.7    
0.7    

0.7    
0.7    
0.7    
0.7    
0.7    

0.7    
0.7    
0.7    
0.8    
0.8    

0.8    
0.8    
0.8    
0.8    
0.8    

0.8    
0.8    
0.8    
0.8    
0.9    

0.9    
0.9    
0.9    
0.9    
0.9    

0.9    
0.9    
0.9    
0.9    
0.9    

1.0    
1.0    
1.0    
1.0    
1.0    

1.0    
1.0    
1.0    
1.0    
1.0    

1.0    
1.0    
0.9    
1.0    
0.9    
0.8    

0.8    
0.7    
0.7    
0.6    
0.6    

0.5    
0.5    
0.4    
0.4    
0.3    

0.3    
0.2    
0.2    
0.1    
0.1    

0.0    
0.0    
1.0    
0.9    
0.8    

0.7    
0.6    
0.5    
0.4    
0.3    

0.2    
0.1    
0.0    
1.0    
0.9    

0.8    
0.7    
0.6    
0.5    
0.4    

0.3    
0.2    
0.1    
0.0    
1.0    

0.9    
0.8    
0.7    
0.6    
0.5    

0.4    
0.3    
0.2    
0.1    
0.0    

1.0    
0.9    
0.8    
0.7    
0.6    

0.5    
0.4    
0.3    
0.2    
0.1    

0.0    
1.0    
0.9    
0.8    
0.7    

0.6    
0.5    
0.4    
0.3    
0.2    

0.1    
0.0    
1.0    
0.9    
0.8    

0.7    
0.6    
0.5    
0.4    
0.3    

0.2    
0.1    
0.0    
1.0    
0.9    

0.8    
0.7    
0.6    
0.5    
0.4    

0.3    
0.2    
0.1    
0.0    
1.0    

0.9    
0.8    
0.7    
0.6    
0.5    

0.4    
0.3    
0.2    
0.1    
0.0    

0.9    
1.0    
0.8    
0.7    
0.6    

0.5    
0.4    
0.3    
0.2    
0.1    

0.0    
0.0    0.0    0.0    0.0    0.0    
0.0    0.0    0.0    0.0    0.0    
0.0    0.0    0.0    0.0    0.0    
0.0    0.0    0.0    0.0    0.0    
0.0    0.0    0.0    0.0    0.0    
0.0    0.0    0.0    0.0    0.0    
0.0    0.0    0.0    0.0    0.0    
0.0    0.0    0.0    0.0    0.0    
0.0    0.0    0.0    0.0    0.0    
0.0    0.0    0.0    0.0    0.0    
0.0    0.0    0.0    0.0    0.0    
0.0    0.0    0.0    0.0    0.0    
0.0    0.0    0.0    0.0    0.0    
0.0    0.0    0.0    0.0    0.0    
0.0    0.0    0.0    0.0    0.0    
0.0    0.0    0.0    0.0    0.0    
0.0    0.0    0.0    0.0    0.0    
0.0    0.0    0.0    0.0    0.0    
0.0    0.0    0.0    0.0    0.0    
0.0    0.0    0.0    0.0    0.0    
0.0    0.0    0.0    0.0    0.0    
0.0    0.0    0.0    0.0    0.0    
0.0    0.0    0.0    0.0    0.0    
0.0    0.0    0.0    0.0    0.0    
0.0    
0.0114583948582    0.00291666609823    0.00291666609823    0.00291666609823    0.00291666609823    
0.00291666609823    0.00291666609823    0.00291666609823    0.00291666609823    0.0114583948582    
0.0100000618132    -3.64441690811e-14    -3.66845003306e-14    -3.66566346192e-14    -3.66566346192e-14    
-3.66566346192e-14    -3.66566346192e-14    -3.66578043687e-14    -3.66075975538e-14    0.0100000618132    
0.0100000618132    1.61644732435e-16    9.51932099242e-18    9.51932430438e-18    9.51932430438e-18    
9.51932430438e-18    9.51932430438e-18    4.78438421692e-18    5.57184003397e-18    0.0100000618132    
0.0100000618132    2.10064854096e-16    2.42484352266e-17    2.33542119282e-17    2.42501292967e-17    
2.33542119282e-17    2.42501292966e-17    1.90342795054e-17    2.19887497106e-17    0.0100000618132    
0.0100000618132    2.10960776176e-16    2.4248436633e-17    2.42501340117e-17    2.42501340118e-17    
2.42501340117e-17    2.42501340118e-17    1.90839330412e-17    2.19921443884e-17    0.0100000618132    
0.0100000618132    2.10960776176e-16    2.4248436633e-17    2.42501340118e-17    2.42501340118e-17    
2.42501340118e-17    2.42501340118e-17    1.90839859808e-17    2.19921443884e-17    0.0100000618132    
0.0100000618132    2.10960776176e-16    2.4248436633e-17    2.42501340118e-17    2.42501340118e-17    
2.42501340118e-17    2.42501340118e-17    1.90839859808e-17    2.19921443884e-17    0.0100000618132    
0.0100000618132    2.10960776176e-16    2.4248436633e-17    2.42501340118e-17    2.42501340118e-17    
2.42501340118e-17    2.42501340118e-17    1.90839859808e-17    2.19921443884e-17    0.0100000618132    
0.0100000618133    3.6737317864e-14    3.66061167054e-14    3.66061184028e-14    3.66061184028e-14    
3.66061184028e-14    3.66061184028e-14    3.66009522547e-14    3.66038604132e-14    0.0100000618133    
0.0114226900272    0.00284525641956    0.00284525641957    0.00284525641957    0.00284525641957    
0.00284525641957    0.00284525641957    0.00284525641957    0.00284525641956    0.0114226900272    

2.36630987447e-08    1.82956185579e-14    5.35798115052e-17    5.35798115052e-17    5.35798115052e-17    
5.35798115052e-17    5.35798115052e-17    5.35798115052e-17    -1.82877378987e-14    -2.36630971569e-08    
4.73261930341e-08    3.66017761726e-14    4.77175636238e-17    3.29448763475e-17    3.29448763475e-17    
3.29448763475e-17    3.29448759339e-17    5.57553969027e-18    -3.65922415481e-14    -4.73261917889e-08    
4.73261957924e-08    3.66477043808e-14    7.97680824419e-17    5.11175999194e-17    5.11175999194e-17    
5.11175999194e-17    5.11040465578e-17    3.91544487925e-17    -3.66065424579e-14    -4.7326194634e-08    
4.73261958e-08    3.66374357459e-14    8.34097918881e-17    5.47268657904e-17    5.47593093657e-17    
5.47268657904e-17    5.47593093651e-17    3.39263827364e-17    -3.66040035589e-14    -4.73261946445e-08    
4.73261958e-08    3.66374681944e-14    8.34097969824e-17    5.47593144598e-17    5.475931446e-17    
5.47593144598e-17    5.475931446e-17    3.39549494558e-17    -3.66039984757e-14    -4.73261946445e-08    
4.73261958e-08    3.66374681944e-14    8.34097969824e-17    5.475931446e-17    5.475931446e-17    
5.475931446e-17    5.475931446e-17    3.39549626911e-17    -3.66039984757e-14    -4.73261946445e-08    
4.73261958e-08    3.66374681944e-14    8.34097969824e-17    5.475931446e-17    5.475931446e-17    
5.475931446e-17    5.475931446e-17    3.39549626911e-17    -3.66039984757e-14    -4.73261946445e-08    
4.73261957722e-08    3.66652237849e-14    8.34097969824e-17    5.475931446e-17    5.475931446e-17    
5.475931446e-17    5.475931446e-17    3.39549626911e-17    -3.66039984757e-14    -4.73261946865e-08    
4.73261931516e-08    3.66791015801e-14    8.34097969824e-17    5.475931446e-17    5.475931446e-17    
5.475931446e-17    5.475931446e-17    6.19937219891e-18    -3.66317540662e-14    -4.73261921553e-08    
2.36630983712e-08    1.83326562648e-14    5.56542064902e-17    2.70037239677e-17    2.70037239677e-17    
2.70037239677e-17    2.70037239677e-17    6.19937220053e-18    -1.82853087509e-14    -2.36630973755e-08    

3.99507606047e-17    2.84918351929e-17    3.33797031547e-17    3.33797031547e-17    3.33797031547e-17    
3.33797031547e-17    3.33797031547e-17    3.33797031547e-17    1.51981119278e-17    4.43440413576e-18    
4.13222820621e-17    4.10815923306e-17    2.7207185218e-17    2.67667278494e-17    2.67667278494e-17    
2.67667278494e-17    2.67667279528e-17    2.7265671541e-17    1.72171912169e-17    3.34547912564e-18    
4.41746440864e-17    3.48232365178e-17    3.13538406458e-17    3.30885650516e-17    3.30885650516e-17    
3.30885650516e-17    3.3088564638e-17    1.95671751578e-17    1.11128621801e-17    4.52984405893e-18    
4.24429650146e-17    3.15639141751e-17    3.50465104326e-17    3.17807547258e-17    3.17939021717e-17    
3.17807547258e-17    3.17939021717e-17    2.15429444928e-17    1.1955625053e-17    6.25779219753e-18    
4.24429688427e-17    3.1573677419e-17    3.50465141573e-17    3.17939059999e-17    3.17939059999e-17    
3.17939059999e-17    3.17939059999e-17    2.156560271e-17    1.19539298504e-17    6.25779219743e-18    
4.24429688427e-17    3.1573677419e-17    3.50465141573e-17    3.17939059999e-17    3.17939059999e-17    
3.17939059999e-17    3.17939059999e-17    2.15656027101e-17    1.19539298504e-17    6.25779219743e-18    
4.24429688427e-17    3.1573677419e-17    3.50465141573e-17    3.17939059999e-17    3.17939059999e-17    
3.17939059999e-17    3.17939059999e-17    2.15656027101e-17    1.19539298504e-17    6.25779219743e-18    
4.24429688427e-17    3.1573677419e-17    3.50465141573e-17    3.17939059999e-17    3.17939059999e-17    
3.17939059999e-17    3.17939059999e-17    2.15656027101e-17    1.19539298504e-17    1.34406086445e-17    
3.0509935816e-17    1.76958821729e-17    3.50465141573e-17    3.17939059999e-17    3.17939059999e-17    
3.17939059999e-17    3.17939059999e-17    3.54433979562e-17    2.58317250965e-17    1.80992391442e-17    
2.85650941875e-17    1.76958821729e-17    3.50465141573e-17    3.17939059999e-17    3.17939059999e-17    
3.17939059999e-17    3.17939059999e-17    3.5443397957e-17    3.97095203426e-17    2.89545879285e-17    

0.999999464    0.999999464014    0.999999464014    0.999999464014    0.999999464014    
0.999999464014    0.999999464014    0.999999464014    0.999999464014    0.999999464    
0.999999464014    0.999999464014    0.999999464014    0.999999464014    0.999999464014    
0.999999464014    0.999999464014    0.999999464014    0.999999464014    0.999999464014    
0.999999464014    0.999999464014    0.999999464014    0.999999464014    0.999999464014    
0.999999464014    0.999999464014    0.999999464014    0.999999464014    0.999999464014    
0.999999464014    0.999999464014    0.999999464014    0.999999464014    0.999999464014    
0.999999464014    0.999999464014    0.999999464014    0.999999464014    0.999999464014    
0.999999464014    0.999999464014    0.999999464014    0.999999464014    0.999999464014    
0.999999464014    0.999999464014    0.999999464014    0.999999464014    0.999999464014    
0.999999464014    0.999999464014    0.999999464014    0.999999464014    0.999999464014    
0.999999464014    0.999999464014    0.999999464014    0.999999464014    0.999999464014    
0.999999464014    0.999999464014    0.999999464014    0.999999464014    0.999999464014    
0.999999464014    0.999999464014    0.999999464014    0.999999464014    0.999999464014    
0.999999464014    0.999999464014    0.999999464014    0.999999464014    0.999999464014    
0.999999464014    0.999999464014    0.999999464014    0.999999464014    0.999999464014    
0.999999464014    0.999999464014    0.999999464014    0.999999464014    0.999999464014    
0.999999464014    0.999999464014    0.999999464014    0.999999464014    0.999999464014    
0.999999464    0.999999464014    0.999999464014    0.999999464014    0.999999464014    
0.999999464014    0.999999464014    0.999999464014    0.999999464014    0.999999464    

1.00181856316    1.00353419953    1.00353419953    1.00353419953    1.00353419953    
1.00353419953    1.00353419953    1.00353419953    1.00353419953    1.00181856316    
1.00007250729    1.00000603432    1.00000603432    1.00000603432    1.00000603432    
1.00000603432    1.00000603432    1.00000603432    1.00000603432    1.00007250729    
1.00007250729    1.00000603432    1.00000603432    1.00000603432    1.00000603432    
1.00000603432    1.00000603432    1.00000603432    1.00000603432    1.00007250729    
1.00007250729    1.00000603432    1.00000603432    1.00000603432    1.00000603432    
1.00000603432    1.00000603432    1.00000603432    1.00000603432    1.00007250729    
1.00007250729    1.00000603432    1.00000603432    1.00000603432    1.00000603432    
1.00000603432    1.00000603432    1.00000603432    1.00000603432    1.00007250729    
1.00007250729    1.00000603432    1.00000603432    1.00000603432    1.00000603432    
1.00000603432    1.00000603432    1.00000603432    1.00000603432    1.00007250729    
1.00007250729    1.00000603432    1.00000603432    1.00000603432    1.00000603432    
1.00000603432    1.00000603432    1.00000603432    1.00000603432    1.00007250729    
1.00007250729    1.00000603432    1.00000603432    1.00000603432    1.00000603432    
1.00000603432    1.00000603432    1.00000603432    1.00000603432    1.00007250729    
1.00007250729    1.00000603432    1.00000603432    1.00000603432    1.00000603432    
1.00000603432    1.00000603432    1.00000603432    1.00000603432    1.00007250729    
0.998335282184    0.996566822601    0.996566822601    0.996566822601    0.996566822601    
0.996566822601    0.996566822601    0.996566822601    0.996566822601    0.998335282184    

2.25359163076e-07    2.25671717604e-07    2.25671717604e-07    2.25671717604e-07    2.25671717604e-07    
2.25671717604e-07    2.25671717604e-07    2.25671717604e-07    2.25671717604e-07    2.25359163076e-07    
2.25040962285e-07    2.25028846182e-07    2.25028846182e-07    2.25028846182e-07    2.25028846182e-07    
2.25028846182e-07    2.25028846182e-07    2.25028846182e-07    2.25028846182e-07    2.25040962285e-07    
2.25040962285e-07    2.25028846182e-07    2.25028846182e-07    2.25028846182e-07    2.25028846182e-07    
2.25028846182e-07    2.25028846182e-07    2.25028846182e-07    2.25028846182e-07    2.25040962285e-07    
2.25040962285e-07    2.25028846182e-07    2.25028846182e-07    2.25028846182e-07    2.25028846182e-07    
2.25028846182e-07    2.25028846182e-07    2.25028846182e-07    2.25028846182e-07    2.25040962285e-07    
2.25040962285e-07    2.25028846182e-07    2.25028846182e-07    2.25028846182e-07    2.25028846182e-07    
2.25028846182e-07    2.25028846182e-07    2.25028846182e-07    2.25028846182e-07    2.25040962285e-07    
2.25040962285e-07    2.25028846182e-07    2.25028846182e-07    2.25028846182e-07    2.25028846182e-07    
2.25028846182e-07    2.25028846182e-07    2.25028846182e-07    2.25028846182e-07    2.25040962285e-07    
2.25040962285e-07    2.25028846182e-07    2.25028846182e-07    2.25028846182e-07    2.25028846182e-07    
2.25028846182e-07    2.25028846182e-07    2.25028846182e-07    2.25028846182e-07    2.25040962285e-07    
2.25040962285e-07    2.25028846182e-07    2.25028846182e-07    2.25028846182e-07    2.25028846182e-07    
2.25028846182e-07    2.25028846182e-07    2.25028846182e-07    2.25028846182e-07    2.25040962285e-07    
2.25040962285e-07    2.25028846182e-07    2.25028846182e-07    2.25028846182e-07    2.25028846182e-07    
2.25028846182e-07    2.25028846182e-07    2.25028846182e-07    2.25028846182e-07    2.25040962285e-07    
2.2472426604e-07    2.24401768177e-07    2.24401768177e-07    2.24401768177e-07    2.24401768177e-07    
2.24401768177e-07    2.24401768177e-07    2.24401768177e-07    2.24401768177e-07    2.2472426604e-07    

1.00181910013    1.00353473741    1.00353473741    1.00353473741    1.00353473741    
1.00353473741    1.00353473741    1.00353473741    1.00353473741    1.00181910013    
1.00007304332    1.00000657031    1.00000657031    1.00000657031    1.00000657031    
1.00000657031    1.00000657031    1.00000657031    1.00000657031    1.00007304332    
1.00007304332    1.00000657031    1.00000657031    1.00000657031    1.00000657031    
1.00000657031    1.00000657031    1.00000657031    1.00000657031    1.00007304332    
1.00007304332    1.00000657031    1.00000657031    1.00000657031    1.00000657031    
1.00000657031    1.00000657031    1.00000657031    1.00000657031    1.00007304332    
1.00007304332    1.00000657031    1.00000657031    1.00000657031    1.00000657031    
1.00000657031    1.00000657031    1.00000657031    1.00000657031    1.00007304332    
1.00007304332    1.00000657031    1.00000657031    1.00000657031    1.00000657031    
1.00000657031    1.00000657031    1.00000657031    1.00000657031    1.00007304332    
1.00007304332    1.00000657031    1.00000657031    1.00000657031    1.00000657031    
1.00000657031    1.00000657031    1.00000657031    1.00000657031    1.00007304332    
1.00007304332    1.00000657031    1.00000657031    1.00000657031    1.00000657031    
1.00000657031    1.00000657031    1.00000657031    1.00000657031    1.00007304332    
1.00007304332    1.00000657031    1.00000657031    1.00000657031    1.00000657031    
1.00000657031    1.00000657031    1.00000657031    1.00000657031    1.00007304332    
0.998335817292    0.996567356747    0.996567356747    0.996567356747    0.996567356747    
0.996567356747    0.996567356747    0.996567356747    0.996567356747    0.998335817292    

1239.96138471    1240.36456282    1240.36456282    1240.36456282    1240.36456282    
1240.36456282    1240.36456282    1240.36456282    1240.36456282    1239.96138471    
1239.55048336    1239.53482872    1239.53482872    1239.53482872    1239.53482872    
1239.53482872    1239.53482872    1239.53482872    1239.53482872    1239.55048336    
1239.55048336    1239.53482872    1239.53482872    1239.53482872    1239.53482872    
1239.53482872    1239.53482872    1239.53482872    1239.53482872    1239.55048336    
1239.55048336    1239.53482872    1239.53482872    1239.53482872    1239.53482872    
1239.53482872    1239.53482872    1239.53482872    1239.53482872    1239.55048336    
1239.55048336    1239.53482872    1239.53482872    1239.53482872    1239.53482872    
1239.53482872    1239.53482872    1239.53482872    1239.53482872    1239.55048336    
1239.55048336    1239.53482872    1239.53482872    1239.53482872    1239.53482872    
1239.53482872    1239.53482872    1239.53482872    1239.53482872    1239.55048336    
1239.55048336    1239.53482872    1239.53482872    1239.53482872    1239.53482872    
1239.53482872    1239.53482872    1239.53482872    1239.53482872    1239.55048336    
1239.55048336    1239.53482872    1239.53482872    1239.53482872    1239.53482872    
1239.53482872    1239.53482872    1239.53482872    1239.53482872    1239.55048336    
1239.55048336    1239.53482872    1239.53482872    1239.53482872    1239.53482872    
1239.53482872    1239.53482872    1239.53482872    1239.53482872    1239.55048336    
1239.14108302    1238.72372876    1238.72372876    1238.72372876    1238.72372876    
1238.72372876    1238.72372876    1238.72372876    1238.72372876    1239.14108302    

2     4     3     1     4     2     5     6     6     5     7     8     8     7     9     10     10     9     11     12     12     11     13     14     14     13     15     16     16     15     17     18     18     17     19     20     20     19     21     22     3     4     24     23     4     6     25     24     6     8     26     25     8     10     27     26     10     12     28     27     12     14     29     28     14     16     30     29     16     18     31     30     18     20     32     31     20     22     33     32     23     24     35     34     24     25     36     35     25     26     37     36     26     27     38     37     27     28     39     38     28     29     40     39     29     30     41     40     30     31     42     41     31     32     43     42     32     33     44     43     34     35     46     45     35     36     47     46     36     37     48     47     37     38     49     48     38     39     50     49     39     40     51     50     40     41     52     51     41     42     53     52     42     43     54     53     43     44     55     54     45     46     57     56     46     47     58     57     47     48     59     58     48     49     60     59     49     50     61     60     50     51     62     61     51     52     63     62     52     53     64     63     53     54     65     64     54     55     66     65     56     57     68     67     57     58     69     68     58     59     70     69     59     60     71     70     60     61     72     71     61     62     73     72     62     63     74     73     63     64     75     74     64     65     76     75     65     66     77     76     67     68     79     78     68     69     80     79     69     70     81     80     70     71     82     81     71     72     83     82     72     73     84     83     73     74     85     84     74     75     86     85     75     76     87     86     76     77     88     87     78     79     90     89     79     80     91     90     80     81     92     91     81     82     93     92     82     83     94     93     83     84     95     94     84     85     96     95     85     86     97     96     86     87     98     97     87     88     99     98     89     90     101     100     90     91     102     101     91     92     103     102     92     93     104     103     93     94     105     104     94     95     106     105     95     96     107     106     96     97     108     107     97     98     109     108     98     99     110     109     100     101     111     112     101     102     113     111     102     103     114     113     103     104     115     114     104     105     116     115     105     106     117     116     106     107     118     117     107     108     119     118     108     109     120     119     109     110     121     120     

