Title = " tecplot out file" 
variables = "x", "y", "z", "velX", "velY", "velZ","density","pressure","viscosity","temperature", "collisionFrequency",
Zone T = "nmesh0" N = 121 E = 100 DATAPACKING = BLOCK, VARLOCATION = ([4-11]=CELLCENTERED),  ZONETYPE=FEQUADRILATERAL 
0.0    
0.0    
0.1    
0.1    
0.0    

0.1    
0.0    
0.1    
0.0    
0.1    

0.0    
0.1    
0.0    
0.1    
0.0    

0.1    
0.0    
0.1    
0.0    
0.1    

0.0    
0.1    
0.2    
0.2    
0.2    

0.2    
0.2    
0.2    
0.2    
0.2    

0.2    
0.2    
0.2    
0.3    
0.3    

0.3    
0.3    
0.3    
0.3    
0.3    

0.3    
0.3    
0.3    
0.3    
0.4    

0.4    
0.4    
0.4    
0.4    
0.4    

0.4    
0.4    
0.4    
0.4    
0.4    

0.5    
0.5    
0.5    
0.5    
0.5    

0.5    
0.5    
0.5    
0.5    
0.5    

0.5    
0.6    
0.6    
0.6    
0.6    

0.6    
0.6    
0.6    
0.6    
0.6    

0.6    
0.6    
0.7    
0.7    
0.7    

0.7    
0.7    
0.7    
0.7    
0.7    

0.7    
0.7    
0.7    
0.8    
0.8    

0.8    
0.8    
0.8    
0.8    
0.8    

0.8    
0.8    
0.8    
0.8    
0.9    

0.9    
0.9    
0.9    
0.9    
0.9    

0.9    
0.9    
0.9    
0.9    
0.9    

1.0    
1.0    
1.0    
1.0    
1.0    

1.0    
1.0    
1.0    
1.0    
1.0    

1.0    
1.0    
0.9    
1.0    
0.9    
0.8    

0.8    
0.7    
0.7    
0.6    
0.6    

0.5    
0.5    
0.4    
0.4    
0.3    

0.3    
0.2    
0.2    
0.1    
0.1    

0.0    
0.0    
1.0    
0.9    
0.8    

0.7    
0.6    
0.5    
0.4    
0.3    

0.2    
0.1    
0.0    
1.0    
0.9    

0.8    
0.7    
0.6    
0.5    
0.4    

0.3    
0.2    
0.1    
0.0    
1.0    

0.9    
0.8    
0.7    
0.6    
0.5    

0.4    
0.3    
0.2    
0.1    
0.0    

1.0    
0.9    
0.8    
0.7    
0.6    

0.5    
0.4    
0.3    
0.2    
0.1    

0.0    
1.0    
0.9    
0.8    
0.7    

0.6    
0.5    
0.4    
0.3    
0.2    

0.1    
0.0    
1.0    
0.9    
0.8    

0.7    
0.6    
0.5    
0.4    
0.3    

0.2    
0.1    
0.0    
1.0    
0.9    

0.8    
0.7    
0.6    
0.5    
0.4    

0.3    
0.2    
0.1    
0.0    
1.0    

0.9    
0.8    
0.7    
0.6    
0.5    

0.4    
0.3    
0.2    
0.1    
0.0    

0.9    
1.0    
0.8    
0.7    
0.6    

0.5    
0.4    
0.3    
0.2    
0.1    

0.0    
0.0    0.0    0.0    0.0    0.0    
0.0    0.0    0.0    0.0    0.0    
0.0    0.0    0.0    0.0    0.0    
0.0    0.0    0.0    0.0    0.0    
0.0    0.0    0.0    0.0    0.0    
0.0    0.0    0.0    0.0    0.0    
0.0    0.0    0.0    0.0    0.0    
0.0    0.0    0.0    0.0    0.0    
0.0    0.0    0.0    0.0    0.0    
0.0    0.0    0.0    0.0    0.0    
0.0    0.0    0.0    0.0    0.0    
0.0    0.0    0.0    0.0    0.0    
0.0    0.0    0.0    0.0    0.0    
0.0    0.0    0.0    0.0    0.0    
0.0    0.0    0.0    0.0    0.0    
0.0    0.0    0.0    0.0    0.0    
0.0    0.0    0.0    0.0    0.0    
0.0    0.0    0.0    0.0    0.0    
0.0    0.0    0.0    0.0    0.0    
0.0    0.0    0.0    0.0    0.0    
0.0    0.0    0.0    0.0    0.0    
0.0    0.0    0.0    0.0    0.0    
0.0    0.0    0.0    0.0    0.0    
0.0    0.0    0.0    0.0    0.0    
0.0    
0.00944268221534    0.00291212188107    0.00291138046203    0.00291138002605    0.00291138002574    
0.00291138002574    0.00291138002605    0.00291138046203    0.00291212188107    0.00944268221534    
0.0105764740687    1.02539990103e-05    4.80897154803e-06    4.80579371078e-06    4.8057915014e-06    
4.80579150151e-06    4.80579371046e-06    4.80897154756e-06    1.02539990107e-05    0.0105764740687    
0.0105749207734    5.45659949862e-06    8.55463916371e-09    5.37437773605e-09    5.37216619683e-09    
5.37216629368e-09    5.37437795552e-09    8.55463974069e-09    5.45659949779e-06    0.0105749207734    
0.0105749185866    5.45123640562e-06    3.18800039652e-09    7.73504413185e-12    5.52361206259e-12    
5.52324075172e-12    7.73482431267e-12    3.18800074223e-09    5.45123640465e-06    0.0105749185866    
0.0105749185842    5.45123089388e-06    3.18248405298e-09    2.21917900783e-12    7.30374301493e-15    
7.21331094087e-15    2.21884584761e-12    3.18248443719e-09    5.45123089239e-06    0.0105749185842    
0.0105749185842    5.4512308936e-06    3.1824837536e-09    2.21890314049e-12    7.07898783836e-15    
7.11043678557e-15    2.21860799006e-12    3.18248418908e-09    5.45123089221e-06    0.0105749185842    
0.0105749185865    5.45123619097e-06    3.18778522163e-09    7.52018645245e-12    5.30836548704e-12    
5.30857824279e-12    7.5199956155e-12    3.18778587873e-09    5.45123618984e-06    0.0105749185865    
0.0105749207094    5.45642096733e-06    8.3759445339e-09    5.19568251041e-09    5.19347060423e-09    
5.19347054872e-09    5.19568203285e-09    8.37594367945e-09    5.45642096669e-06    0.0105749207094    
0.0105764379025    1.01186137646e-05    4.67345968905e-06    4.67028175438e-06    4.67027954546e-06    
4.67027954512e-06    4.67028175463e-06    4.67345968923e-06    1.01186137645e-05    0.0105764379025    
0.00944668082208    0.00284109163171    0.00284029068578    0.00284029021586    0.00284029021554    
0.00284029021554    0.00284029021586    0.00284029068578    0.00284109163171    0.00944668082208    

1.33497650258e-05    3.04572203936e-06    2.31256374268e-09    1.9016022844e-12    1.6877890055e-15    
-1.67095596701e-15    -1.90156666858e-12    -2.31256368213e-09    -3.04572203935e-06    -1.33497650243e-05    
1.14018265903e-06    6.01327858564e-10    5.88205046182e-13    6.62701720413e-16    2.7525838563e-17    
7.86449648055e-18    -6.1194404728e-16    -5.88138509704e-13    -6.01327817535e-10    -1.14018265826e-06    
1.12857385082e-06    -7.77940964076e-10    -1.194502797e-12    -1.31949533391e-15    6.11401888042e-17    
6.15182633644e-17    1.40703122746e-15    1.19448994644e-12    7.77941038276e-10    -1.12857384996e-06    
1.12856452695e-06    -7.79619670531e-10    -1.1969044216e-12    -1.34942553275e-15    7.02503384731e-17    
4.7979444586e-17    1.37791866321e-15    1.19694088855e-12    7.79619792256e-10    -1.12856452601e-06    
1.12856451917e-06    -7.79621687884e-10    -1.19690488884e-12    -1.34683315816e-15    2.7117763109e-17    
4.47166885552e-17    1.39970926414e-15    1.19704748135e-12    7.7962178308e-10    -1.12856451802e-06    
1.1285645193e-06    -7.79621687249e-10    -1.19686453417e-12    -1.30528677643e-15    2.70686576176e-17    
2.75650147973e-17    1.3936101085e-15    1.19700785565e-12    7.7962177056e-10    -1.1285645182e-06    
1.12856451156e-06    -7.79623563418e-10    -1.19689563054e-12    -1.33361552815e-15    -2.44926118901e-17    
1.98857401699e-17    1.39466434605e-15    1.19697815796e-12    7.79623676515e-10    -1.12856451052e-06    
1.12855534989e-06    -7.81248452004e-10    -1.19936621288e-12    -1.33026792251e-15    4.59917694479e-17    
6.3511971902e-17    1.39537413766e-15    1.19936337499e-12    7.81248545678e-10    -1.12855534876e-06    
1.11695698297e-06    -2.12047698668e-09    -2.93525070017e-12    -3.28318564628e-15    5.60271838597e-17    
-2.09539318391e-18    3.35206443416e-15    2.93529670475e-12    2.1204770381e-09    -1.11695698184e-06    
-1.23029373489e-05    -3.06126978224e-06    -2.32073452612e-09    -1.90657482574e-12    -1.5658065234e-15    
1.7399455066e-15    1.90666752349e-12    2.32073463891e-09    3.06126978243e-06    1.23029373501e-05    

3.55053189962e-17    3.39675989118e-17    1.91769165923e-17    1.67990719969e-17    2.30996483732e-17    
-9.73357671954e-18    2.27707161209e-17    3.51820884675e-17    3.33808571911e-17    1.38277898042e-17    
4.02410282343e-17    3.77133371521e-17    3.07378325713e-17    2.76896383791e-17    2.3318894153e-17    
2.69774295057e-17    2.82559717864e-17    4.19856621643e-17    2.82701272423e-17    8.44629060891e-18    
2.96352611732e-17    2.82065302694e-17    2.75947827562e-17    2.5611896081e-17    2.05338282842e-17    
2.73695582745e-17    1.98515826129e-17    2.5121820711e-17    2.12118404002e-17    3.1415649993e-17    
2.53967746988e-17    3.6508548383e-17    3.66238702263e-17    2.94310719048e-17    7.00988029382e-18    
5.3757175288e-18    2.13268521677e-17    3.45096700361e-17    3.46999259483e-17    1.47533429637e-17    
5.70824460574e-17    1.62082187002e-17    4.02531378646e-17    1.0916196624e-17    2.84616399926e-17    
1.34485960178e-17    1.58425937363e-17    3.02364409432e-17    2.38831204418e-17    -5.14369191496e-18    
4.1259680623e-17    2.88956650462e-17    3.85454715506e-17    1.02261383757e-17    2.78830878794e-17    
3.28868372568e-17    2.38426723392e-17    1.92243738082e-17    2.99194978505e-17    2.82208976807e-17    
3.63608557506e-17    9.67359695747e-18    2.41126139797e-17    4.06951088182e-17    1.89661767792e-17    
1.96413322833e-17    3.30094140423e-17    2.21122507851e-17    3.43292190955e-17    9.90702339854e-18    
2.6592345329e-17    2.67442561657e-17    1.04952692428e-17    2.47149798461e-17    2.91684596598e-17    
2.05581941144e-17    2.37881293997e-17    2.8899351683e-17    1.2190243377e-17    1.31735670697e-17    
2.02043244534e-17    1.84633171879e-17    2.11719927168e-17    3.22071148488e-17    1.11455009155e-17    
2.5542072139e-17    2.49459081885e-17    1.92649682584e-17    2.89953199994e-17    1.1094582865e-18    
4.00467713345e-17    3.72010214183e-17    2.79433878899e-17    3.59862715086e-17    3.4370361611e-17    
3.37221957627e-17    2.76603864928e-17    4.24493901253e-17    3.9994336155e-17    4.73114018827e-17    

0.991300220839    0.999586936937    0.999594289285    0.999594293453    0.999594293456    
0.999594293456    0.999594293453    0.999594289285    0.999586936937    0.991300220839    
1.00000040695    1.00000220045    1.00000220217    1.00000220217    1.00000220217    
1.00000220217    1.00000220217    1.00000220217    1.00000220045    1.00000040695    
0.99999959113    0.999999548423    0.999999548022    0.999999548022    0.999999548022    
0.999999548022    0.999999548022    0.999999548022    0.999999548423    0.99999959113    
0.999999588551    0.999999545046    0.999999544644    0.999999544643    0.999999544643    
0.999999544643    0.999999544643    0.999999544644    0.999999545046    0.999999588551    
0.999999588549    0.999999545043    0.99999954464    0.99999954464    0.99999954464    
0.99999954464    0.99999954464    0.99999954464    0.999999545043    0.999999588549    
0.999999588549    0.999999545043    0.99999954464    0.99999954464    0.99999954464    
0.99999954464    0.99999954464    0.99999954464    0.999999545043    0.999999588549    
0.999999588546    0.99999954504    0.999999544637    0.999999544636    0.999999544636    
0.999999544636    0.999999544636    0.999999544637    0.99999954504    0.999999588546    
0.999999586033    0.999999541759    0.999999541354    0.999999541353    0.999999541353    
0.999999541353    0.999999541353    0.999999541354    0.999999541759    0.999999586033    
0.999998798584    0.999996954285    0.999996951822    0.99999695182    0.99999695182    
0.99999695182    0.99999695182    0.999996951822    0.999996954285    0.999998798584    
1.00878646703    1.0004035065    1.00039610711    1.00039610292    1.00039610292    
1.00039610292    1.00039610292    1.00039610711    1.0004035065    1.00878646703    

0.993067475744    1.00326258296    1.00327194627    1.00327195237    1.00327195238    
1.00327195238    1.00327195237    1.00327194627    1.00326258296    0.993067475744    
1.0000753253    1.00001383085    1.00001376232    1.00001376228    1.00001376228    
1.00001376228    1.00001376228    1.00001376232    1.00001383085    1.0000753253    
1.00007276705    1.000006921    1.0000068477    1.00000684765    1.00000684765    
1.00000684765    1.00000684765    1.0000068477    1.000006921    1.00007276705    
1.00007276244    1.00000691283    1.00000683953    1.00000683948    1.00000683948    
1.00000683948    1.00000683948    1.00000683953    1.00000691283    1.00007276244    
1.00007276243    1.00000691282    1.00000683952    1.00000683948    1.00000683948    
1.00000683948    1.00000683948    1.00000683952    1.00000691282    1.00007276243    
1.00007276243    1.00000691282    1.00000683952    1.00000683948    1.00000683948    
1.00000683948    1.00000683948    1.00000683952    1.00000691282    1.00007276243    
1.00007276243    1.00000691282    1.00000683951    1.00000683947    1.00000683947    
1.00000683947    1.00000683947    1.00000683951    1.00000691282    1.00007276243    
1.0000727579    1.00000690495    1.00000683164    1.00000683159    1.00000683159    
1.00000683159    1.00000683159    1.00000683164    1.00000690495    1.0000727579    
1.00007023093    1.00000020899    1.00000013116    1.00000013111    1.00000013111    
1.00000013111    1.00000013111    1.00000013116    1.00000020899    1.00007023093    
1.00718311644    0.996830741204    0.99682130618    0.996821300046    0.996821300041    
0.996821300041    0.996821300046    0.99682130618    0.996830741204    1.00718311644    

2.25352542369e-07    2.25697660458e-07    2.25698021969e-07    2.25698022318e-07    2.25698022319e-07    
2.25698022319e-07    2.25698022318e-07    2.25698021969e-07    2.25697660458e-07    2.25352542369e-07    
2.25041304041e-07    2.25029768491e-07    2.25029755686e-07    2.25029755679e-07    2.25029755679e-07    
2.25029755679e-07    2.25029755679e-07    2.25029755686e-07    2.25029768491e-07    2.25041304041e-07    
2.25040986459e-07    2.25028992413e-07    2.25028979126e-07    2.25028979118e-07    2.25028979118e-07    
2.25028979118e-07    2.25028979118e-07    2.25028979126e-07    2.25028992413e-07    2.25040986459e-07    
2.25040986089e-07    2.25028991541e-07    2.25028978252e-07    2.25028978245e-07    2.25028978245e-07    
2.25028978245e-07    2.25028978245e-07    2.25028978252e-07    2.25028991541e-07    2.25040986089e-07    
2.25040986089e-07    2.2502899154e-07    2.25028978251e-07    2.25028978244e-07    2.25028978244e-07    
2.25028978244e-07    2.25028978244e-07    2.25028978251e-07    2.2502899154e-07    2.25040986089e-07    
2.25040986089e-07    2.2502899154e-07    2.25028978251e-07    2.25028978244e-07    2.25028978244e-07    
2.25028978244e-07    2.25028978244e-07    2.25028978251e-07    2.2502899154e-07    2.25040986089e-07    
2.25040986088e-07    2.25028991539e-07    2.25028978251e-07    2.25028978243e-07    2.25028978243e-07    
2.25028978243e-07    2.25028978243e-07    2.25028978251e-07    2.25028991539e-07    2.25040986088e-07    
2.25040985721e-07    2.25028990702e-07    2.25028977414e-07    2.25028977406e-07    2.25028977406e-07    
2.25028977406e-07    2.25028977406e-07    2.25028977414e-07    2.25028990702e-07    2.25040985721e-07    
2.25040668669e-07    2.25028241842e-07    2.25028228103e-07    2.25028228095e-07    2.25028228095e-07    
2.25028228095e-07    2.25028228095e-07    2.25028228103e-07    2.25028241842e-07    2.25040668669e-07    
2.24737903724e-07    2.24376473606e-07    2.24376097643e-07    2.24376097285e-07    2.24376097285e-07    
2.24376097285e-07    2.24376097285e-07    2.24376097643e-07    2.24376473606e-07    2.24737903724e-07    

1.00178276456    1.00367716492    1.00367914966    1.00367915158    1.00367915158    
1.00367915158    1.00367915158    1.00367914966    1.00367716492    1.00178276456    
1.00007491832    1.00001163037    1.00001156013    1.00001156009    1.00001156009    
1.00001156009    1.00001156009    1.00001156013    1.00001163037    1.00007491832    
1.00007317595    1.00000737258    1.00000729968    1.00000729964    1.00000729964    
1.00000729964    1.00000729964    1.00000729968    1.00000737258    1.00007317595    
1.00007317392    1.00000736779    1.00000729489    1.00000729484    1.00000729484    
1.00000729484    1.00000729484    1.00000729489    1.00000736779    1.00007317392    
1.00007317392    1.00000736778    1.00000729488    1.00000729484    1.00000729484    
1.00000729484    1.00000729484    1.00000729488    1.00000736778    1.00007317392    
1.00007317392    1.00000736778    1.00000729488    1.00000729484    1.00000729484    
1.00000729484    1.00000729484    1.00000729488    1.00000736778    1.00007317392    
1.00007317391    1.00000736778    1.00000729488    1.00000729483    1.00000729483    
1.00000729483    1.00000729483    1.00000729488    1.00000736778    1.00007317391    
1.0000731719    1.00000736319    1.00000729029    1.00000729024    1.00000729024    
1.00000729024    1.00000729024    1.00000729029    1.00000736319    1.0000731719    
1.00007143243    1.00000325472    1.00000317934    1.0000031793    1.0000031793    
1.0000031793    1.0000031793    1.00000317934    1.00000325472    1.00007143243    
0.998410614496    0.996428675756    0.996426614515    0.996426612554    0.996426612552    
0.996426612552    0.996426612554    0.996426614515    0.996428675756    0.998410614496    

1229.1661827    1239.88631042    1239.89589611    1239.89590173    1239.89590173    
1239.89590173    1239.89590173    1239.89589611    1239.88631042    1229.1661827    
1239.55209374    1239.53941233    1239.53939791    1239.5393979    1239.5393979    
1239.5393979    1239.5393979    1239.53939791    1239.53941233    1239.55209374    
1239.55067216    1239.53512229    1239.53510462    1239.53510461    1239.53510461    
1239.53510461    1239.53510461    1239.53510462    1239.53512229    1239.55067216    
1239.55066848    1239.53511697    1239.5350993    1239.53509929    1239.53509929    
1239.53509929    1239.53509929    1239.5350993    1239.53511697    1239.55066848    
1239.55066848    1239.53511697    1239.5350993    1239.53509929    1239.53509929    
1239.53509929    1239.53509929    1239.5350993    1239.53511697    1239.55066848    
1239.55066848    1239.53511697    1239.5350993    1239.53509929    1239.53509929    
1239.53509929    1239.53509929    1239.5350993    1239.53511697    1239.55066848    
1239.55066848    1239.53511696    1239.53509929    1239.53509928    1239.53509928    
1239.53509928    1239.53509928    1239.53509929    1239.53511696    1239.55066848    
1239.55066489    1239.53511181    1239.53509414    1239.53509413    1239.53509413    
1239.53509413    1239.53509413    1239.53509414    1239.53511181    1239.55066489    
1239.54927916    1239.53093696    1239.53091616    1239.53091614    1239.53091614    
1239.53091614    1239.53091614    1239.53091616    1239.53093696    1239.54927916    
1250.04721914    1239.19145892    1239.18180631    1239.18180066    1239.18180066    
1239.18180066    1239.18180066    1239.18180631    1239.19145892    1250.04721914    

2     4     3     1     4     2     5     6     6     5     7     8     8     7     9     10     10     9     11     12     12     11     13     14     14     13     15     16     16     15     17     18     18     17     19     20     20     19     21     22     3     4     24     23     4     6     25     24     6     8     26     25     8     10     27     26     10     12     28     27     12     14     29     28     14     16     30     29     16     18     31     30     18     20     32     31     20     22     33     32     23     24     35     34     24     25     36     35     25     26     37     36     26     27     38     37     27     28     39     38     28     29     40     39     29     30     41     40     30     31     42     41     31     32     43     42     32     33     44     43     34     35     46     45     35     36     47     46     36     37     48     47     37     38     49     48     38     39     50     49     39     40     51     50     40     41     52     51     41     42     53     52     42     43     54     53     43     44     55     54     45     46     57     56     46     47     58     57     47     48     59     58     48     49     60     59     49     50     61     60     50     51     62     61     51     52     63     62     52     53     64     63     53     54     65     64     54     55     66     65     56     57     68     67     57     58     69     68     58     59     70     69     59     60     71     70     60     61     72     71     61     62     73     72     62     63     74     73     63     64     75     74     64     65     76     75     65     66     77     76     67     68     79     78     68     69     80     79     69     70     81     80     70     71     82     81     71     72     83     82     72     73     84     83     73     74     85     84     74     75     86     85     75     76     87     86     76     77     88     87     78     79     90     89     79     80     91     90     80     81     92     91     81     82     93     92     82     83     94     93     83     84     95     94     84     85     96     95     85     86     97     96     86     87     98     97     87     88     99     98     89     90     101     100     90     91     102     101     91     92     103     102     92     93     104     103     93     94     105     104     94     95     106     105     95     96     107     106     96     97     108     107     97     98     109     108     98     99     110     109     100     101     111     112     101     102     113     111     102     103     114     113     103     104     115     114     104     105     116     115     105     106     117     116     106     107     118     117     107     108     119     118     108     109     120     119     109     110     121     120     

