Title = " tecplot out file" 
variables = "x", "y", "z", "velX", "velY", "velZ","density","pressure","viscosity","temperature", "collisionFrequency",
Zone T = "nmesh0" N = 121 E = 100 DATAPACKING = BLOCK, VARLOCATION = ([4-11]=CELLCENTERED),  ZONETYPE=FEQUADRILATERAL 
0.0    
0.0    
0.1    
0.1    
0.0    

0.1    
0.0    
0.1    
0.0    
0.1    

0.0    
0.1    
0.0    
0.1    
0.0    

0.1    
0.0    
0.1    
0.0    
0.1    

0.0    
0.1    
0.2    
0.2    
0.2    

0.2    
0.2    
0.2    
0.2    
0.2    

0.2    
0.2    
0.2    
0.3    
0.3    

0.3    
0.3    
0.3    
0.3    
0.3    

0.3    
0.3    
0.3    
0.3    
0.4    

0.4    
0.4    
0.4    
0.4    
0.4    

0.4    
0.4    
0.4    
0.4    
0.4    

0.5    
0.5    
0.5    
0.5    
0.5    

0.5    
0.5    
0.5    
0.5    
0.5    

0.5    
0.6    
0.6    
0.6    
0.6    

0.6    
0.6    
0.6    
0.6    
0.6    

0.6    
0.6    
0.7    
0.7    
0.7    

0.7    
0.7    
0.7    
0.7    
0.7    

0.7    
0.7    
0.7    
0.8    
0.8    

0.8    
0.8    
0.8    
0.8    
0.8    

0.8    
0.8    
0.8    
0.8    
0.9    

0.9    
0.9    
0.9    
0.9    
0.9    

0.9    
0.9    
0.9    
0.9    
0.9    

1.0    
1.0    
1.0    
1.0    
1.0    

1.0    
1.0    
1.0    
1.0    
1.0    

1.0    
1.0    
0.9    
1.0    
0.9    
0.8    

0.8    
0.7    
0.7    
0.6    
0.6    

0.5    
0.5    
0.4    
0.4    
0.3    

0.3    
0.2    
0.2    
0.1    
0.1    

0.0    
0.0    
1.0    
0.9    
0.8    

0.7    
0.6    
0.5    
0.4    
0.3    

0.2    
0.1    
0.0    
1.0    
0.9    

0.8    
0.7    
0.6    
0.5    
0.4    

0.3    
0.2    
0.1    
0.0    
1.0    

0.9    
0.8    
0.7    
0.6    
0.5    

0.4    
0.3    
0.2    
0.1    
0.0    

1.0    
0.9    
0.8    
0.7    
0.6    

0.5    
0.4    
0.3    
0.2    
0.1    

0.0    
1.0    
0.9    
0.8    
0.7    

0.6    
0.5    
0.4    
0.3    
0.2    

0.1    
0.0    
1.0    
0.9    
0.8    

0.7    
0.6    
0.5    
0.4    
0.3    

0.2    
0.1    
0.0    
1.0    
0.9    

0.8    
0.7    
0.6    
0.5    
0.4    

0.3    
0.2    
0.1    
0.0    
1.0    

0.9    
0.8    
0.7    
0.6    
0.5    

0.4    
0.3    
0.2    
0.1    
0.0    

0.9    
1.0    
0.8    
0.7    
0.6    

0.5    
0.4    
0.3    
0.2    
0.1    

0.0    
0.0    0.0    0.0    0.0    0.0    
0.0    0.0    0.0    0.0    0.0    
0.0    0.0    0.0    0.0    0.0    
0.0    0.0    0.0    0.0    0.0    
0.0    0.0    0.0    0.0    0.0    
0.0    0.0    0.0    0.0    0.0    
0.0    0.0    0.0    0.0    0.0    
0.0    0.0    0.0    0.0    0.0    
0.0    0.0    0.0    0.0    0.0    
0.0    0.0    0.0    0.0    0.0    
0.0    0.0    0.0    0.0    0.0    
0.0    0.0    0.0    0.0    0.0    
0.0    0.0    0.0    0.0    0.0    
0.0    0.0    0.0    0.0    0.0    
0.0    0.0    0.0    0.0    0.0    
0.0    0.0    0.0    0.0    0.0    
0.0    0.0    0.0    0.0    0.0    
0.0    0.0    0.0    0.0    0.0    
0.0    0.0    0.0    0.0    0.0    
0.0    0.0    0.0    0.0    0.0    
0.0    0.0    0.0    0.0    0.0    
0.0    0.0    0.0    0.0    0.0    
0.0    0.0    0.0    0.0    0.0    
0.0    0.0    0.0    0.0    0.0    
0.0    
0.00938459252325    0.00290592746834    0.00290449228549    0.00290449089725    0.0029044908958    
0.0029044908958    0.00290449089724    0.00290449228549    0.00290592746834    0.00938459252325    
0.0111179358988    2.04040468431e-05    9.51943559897e-06    9.50911136873e-06    9.50910079757e-06    
9.50910079757e-06    9.50911136865e-06    9.51943559843e-06    2.04040468445e-05    0.0111179358988    
0.0111164180966    1.09250860381e-05    2.78715922198e-08    1.75323471855e-08    1.75217582623e-08    
1.75217585891e-08    1.75323473547e-08    2.78715920994e-08    1.09250860383e-05    0.0111164180966    
0.011116412815    1.09076111729e-05    1.03766374555e-08    3.73652077498e-11    2.67758472265e-11    
2.677557207e-11    3.73645461182e-11    1.03766374684e-08    1.09076111728e-05    0.011116412815    
0.0111164128055    1.09075844777e-05    1.03499117581e-08    1.06387153364e-11    4.98103163345e-14    
4.99470112994e-14    1.06384880207e-11    1.0349911327e-08    1.09075844775e-05    0.0111164128055    
0.0111164128055    1.09075844762e-05    1.03499102181e-08    1.06372300578e-11    4.80219726423e-14    
4.83122549643e-14    1.06369476133e-11    1.03499095584e-08    1.09075844755e-05    0.0111164128055    
0.0111164128147    1.09076101426e-05    1.03756059593e-08    3.63335216838e-11    2.57444886454e-11    
2.57445026138e-11    3.63335093784e-11    1.03756062362e-08    1.09076101426e-05    0.0111164128147    
0.0111164179611    1.09245097559e-05    2.72943315394e-08    1.69550854368e-08    1.69444967671e-08    
1.69444967485e-08    1.6955085646e-08    2.72943317019e-08    1.09245097559e-05    0.0111164179611    
0.01111789452    2.01398289632e-05    9.2546935808e-06    9.2443687398e-06    9.24435816844e-06    
9.24435816829e-06    9.24436874033e-06    9.2546935798e-06    2.01398289636e-05    0.01111789452    
0.00938753441802    0.00283527979665    0.00283372210201    0.00283372060105    0.00283372059949    
0.00283372059949    0.00283372060105    0.00283372210201    0.00283527979665    0.00938753441802    

2.50063508959e-05    6.59622859269e-06    8.19421929163e-09    9.91194717431e-12    1.19601525508e-14    
-1.18396641743e-14    -9.91185712922e-12    -8.19421926046e-09    -6.59622859264e-06    -2.50063508951e-05    
2.1483702031e-06    4.58343084676e-09    6.37090032073e-12    9.02120795283e-15    6.47566593435e-17    
-1.6416691387e-17    -8.9865318775e-15    -6.37083209425e-12    -4.58343073928e-09    -2.14837020194e-06    
2.10382523916e-06    -1.3658474877e-09    -5.24494309493e-12    -9.05754341531e-15    -1.96682175827e-17    
4.65800826351e-17    9.11156246855e-15    5.24500696674e-12    1.36584754107e-09    -2.10382523739e-06    
2.10376127134e-06    -1.37478371322e-09    -5.26458625909e-12    -9.08157335909e-15    1.49798050316e-17    
6.56468068809e-17    9.1172439141e-15    5.2646854923e-12    1.37478380716e-09    -2.1037612695e-06    
2.10376118536e-06    -1.37479724584e-09    -5.26466227849e-12    -9.07721021732e-15    1.63148789443e-17    
3.81216889868e-17    9.12685332244e-15    5.26467074338e-12    1.37479730458e-09    -2.10376118368e-06    
2.10376118554e-06    -1.37479727235e-09    -5.26461352272e-12    -9.10731884794e-15    1.83723782855e-17    
2.84174335967e-17    9.16266610937e-15    5.264658506e-12    1.37479735199e-09    -2.10376118372e-06    
2.10376110121e-06    -1.3748102957e-09    -5.26469088504e-12    -9.07779537638e-15    2.26114013374e-17    
2.90438346909e-17    9.12583417711e-15    5.26474033172e-12    1.37481033873e-09    -2.10376109927e-06    
2.10369759413e-06    -1.38344289012e-09    -5.28364681041e-12    -9.09885561229e-15    -1.94735965512e-18    
6.73572942401e-17    9.15200035816e-15    5.2836865143e-12    1.38344298762e-09    -2.10369759247e-06    
2.05857813477e-06    -7.18039195821e-09    -1.66202030081e-11    -2.67235555966e-14    5.28729372566e-17    
8.27196256116e-17    2.67555103289e-14    1.66202608035e-11    7.1803920392e-09    -2.05857813356e-06    
-2.29911620014e-05    -6.66827667196e-06    -8.26012300713e-09    -9.97327312264e-12    -1.19103022515e-14    
1.20070618564e-14    9.97334084044e-12    8.26012303123e-09    6.66827667201e-06    2.29911620029e-05    

3.29094544333e-17    2.1810583808e-17    1.36250353047e-17    2.10193836033e-17    2.34467481315e-17    
1.61759090059e-17    2.31451926806e-17    2.86363937194e-17    2.17844305208e-17    1.06560688887e-17    
3.73271624002e-17    3.09615255236e-17    2.45292717734e-17    3.21188860138e-17    2.00217010061e-17    
2.10970370933e-17    3.14500997837e-17    3.51933683287e-17    2.60349694778e-17    1.35867268492e-17    
4.04066403196e-17    2.08087529198e-17    2.4433765903e-17    2.33438203255e-17    2.07192031603e-17    
3.08404808929e-17    5.65251988667e-18    3.09045823038e-17    1.82762754043e-17    -9.82714464988e-19    
3.77502217431e-17    3.27772121753e-17    3.71923388589e-17    2.27648970026e-17    3.37366641827e-17    
1.20414665983e-17    3.31943349638e-17    3.90085630994e-17    8.72675368358e-18    2.48641156305e-17    
3.6299597061e-17    1.34663580127e-17    4.61437032981e-17    2.6242304394e-17    3.65006817615e-17    
3.82221783112e-17    1.35822775311e-17    1.15254747662e-17    3.36901247852e-17    3.67315174562e-17    
3.52132216629e-17    1.97211614766e-17    2.87023836651e-17    2.05232169795e-17    2.36390956403e-17    
1.59207509336e-17    4.15616682848e-17    2.05902669772e-17    2.01185870157e-17    3.93213666082e-17    
3.97490946187e-17    2.24218757762e-17    3.10033353189e-17    2.94444842767e-17    2.29932903213e-17    
2.61815347619e-17    4.22516079418e-17    3.32449454742e-17    3.60897736259e-17    2.53798722786e-17    
1.6304528811e-17    2.01108364572e-17    2.01581329456e-17    2.08151830976e-17    1.9904710366e-17    
3.45963052237e-17    3.30157284426e-17    3.19895910344e-17    4.37874175093e-17    1.96702919395e-17    
4.4940891747e-17    1.61693762485e-17    -1.2019609957e-18    2.58896266473e-17    2.27529595671e-17    
4.26504455393e-17    1.49807466695e-17    1.83971421854e-17    3.91458779797e-17    1.90531318433e-17    
3.27105004531e-17    4.00187399057e-17    1.62109034472e-17    2.49684789529e-17    3.53127404736e-17    
4.3950473812e-17    3.21306519079e-17    3.99682465322e-17    2.40873010614e-17    3.50630257615e-17    

0.988849477033    0.999174069942    0.999190456042    0.999190471144    0.999190471159    
0.999190471159    0.999190471144    0.999190456042    0.999174069942    0.988849477033    
0.999998064084    1.00000481236    1.00000482209    1.0000048221    1.0000048221    
1.0000048221    1.0000048221    1.00000482209    1.00000481236    0.999998064084    
0.999999863658    0.999999637058    0.999999636365    0.999999636362    0.999999636362    
0.999999636362    0.999999636362    0.999999636365    0.999999637058    0.999999863658    
0.999999858165    0.999999625992    0.999999625285    0.999999625282    0.999999625282    
0.999999625282    0.999999625282    0.999999625285    0.999999625992    0.999999858165    
0.999999858154    0.999999625975    0.999999625269    0.999999625266    0.999999625266    
0.999999625266    0.999999625266    0.999999625269    0.999999625975    0.999999858154    
0.999999858154    0.999999625975    0.999999625269    0.999999625266    0.999999625266    
0.999999625266    0.999999625266    0.999999625269    0.999999625975    0.999999858154    
0.999999858143    0.999999625959    0.999999625253    0.99999962525    0.99999962525    
0.99999962525    0.99999962525    0.999999625253    0.999999625959    0.999999858143    
0.999999852785    0.999999615202    0.999999614483    0.99999961448    0.99999961448    
0.99999961448    0.99999961448    0.999999614483    0.999999615202    0.999999852785    
1.00000169877    0.99999456403    0.9999945531    0.999994553084    0.999994553084    
0.999994553084    0.999994553084    0.9999945531    0.99999456403    1.00000169877    
1.01137503605    1.00080873674    1.00079212135    1.00079210608    1.00079210606    
1.00079210606    1.00079210608    1.00079212135    1.00080873674    1.01137503605    

0.990577569183    1.00298206821    1.00300265542    1.00300267719    1.00300267721    
1.00300267721    1.00300267719    1.00300265542    1.00298206821    0.990577569183    
1.00007377247    1.00002145958    1.00002133412    1.00002133401    1.00002133401    
1.00002133401    1.00002133401    1.00002133412    1.00002145958    1.00007377247    
1.00007278335    1.00000781765    1.00000767151    1.00000767137    1.00000767137    
1.00000767137    1.00000767137    1.00000767151    1.00000781765    1.00007278335    
1.00007277245    1.00000779099    1.00000764481    1.00000764467    1.00000764467    
1.00000764467    1.00000764467    1.00000764481    1.00000779099    1.00007277245    
1.00007277243    1.00000779095    1.00000764477    1.00000764463    1.00000764463    
1.00000764463    1.00000764463    1.00000764477    1.00000779095    1.00007277243    
1.00007277243    1.00000779095    1.00000764477    1.00000764463    1.00000764463    
1.00000764463    1.00000764463    1.00000764477    1.00000779095    1.00007277243    
1.00007277241    1.0000077909    1.00000764473    1.00000764459    1.00000764458    
1.00000764458    1.00000764459    1.00000764473    1.0000077909    1.00007277241    
1.00007276167    1.00000776519    1.00000761898    1.00000761884    1.00000761884    
1.00000761884    1.00000761884    1.00000761898    1.00000776519    1.00007276167    
1.00007182075    0.999994540701    0.999994374763    0.999994374591    0.999994374591    
0.999994374591    0.999994374591    0.999994374763    0.999994540701    1.00007182075    
1.00981044589    0.997103956274    0.99708308392    0.997083061921    0.997083061896    
0.997083061896    0.997083061921    0.99708308392    0.997103956274    1.00981044589    

2.25346131081e-07    2.25722064179e-07    2.25722818607e-07    2.25722819811e-07    2.25722819813e-07    
2.25722819813e-07    2.25722819811e-07    2.25722818607e-07    2.25722064179e-07    2.25346131081e-07    
2.25041448073e-07    2.25030682907e-07    2.25030658265e-07    2.25030658242e-07    2.25030658242e-07    
2.25030658242e-07    2.25030658242e-07    2.25030658265e-07    2.25030682907e-07    2.25041448073e-07    
2.25040939753e-07    2.25029139693e-07    2.25029113182e-07    2.25029113156e-07    2.25029113156e-07    
2.25029113156e-07    2.25029113156e-07    2.25029113182e-07    2.25029139693e-07    2.25040939753e-07    
2.25040938768e-07    2.2502913685e-07    2.25029110335e-07    2.25029110309e-07    2.25029110309e-07    
2.25029110309e-07    2.25029110309e-07    2.25029110335e-07    2.2502913685e-07    2.25040938768e-07    
2.25040938766e-07    2.25029136845e-07    2.2502911033e-07    2.25029110304e-07    2.25029110304e-07    
2.25029110304e-07    2.25029110304e-07    2.2502911033e-07    2.25029136845e-07    2.25040938766e-07    
2.25040938766e-07    2.25029136845e-07    2.2502911033e-07    2.25029110304e-07    2.25029110304e-07    
2.25029110304e-07    2.25029110304e-07    2.2502911033e-07    2.25029136845e-07    2.25040938766e-07    
2.25040938764e-07    2.2502913684e-07    2.25029110325e-07    2.250291103e-07    2.250291103e-07    
2.250291103e-07    2.250291103e-07    2.25029110325e-07    2.2502913684e-07    2.25040938764e-07    
2.25040937783e-07    2.25029134113e-07    2.25029107595e-07    2.25029107569e-07    2.25029107569e-07    
2.25029107569e-07    2.25029107569e-07    2.25029107595e-07    2.25029134113e-07    2.25040937783e-07    
2.25040429792e-07    2.25027644345e-07    2.25027616091e-07    2.25027616062e-07    2.25027616062e-07    
2.25027616062e-07    2.25027616062e-07    2.25027616091e-07    2.25027644345e-07    2.25040429792e-07    
2.24745633002e-07    2.24352677436e-07    2.24351890367e-07    2.2435188913e-07    2.24351889128e-07    
2.24351889128e-07    2.2435188913e-07    2.24351890367e-07    2.24352677436e-07    2.24745633002e-07    

1.00174757856    1.00381114601    1.00381528802    1.00381529464    1.00381529464    
1.00381529464    1.00381529464    1.00381528802    1.00381114601    1.00174757856    
1.00007570853    1.00001664715    1.00001651195    1.00001651183    1.00001651183    
1.00001651183    1.00001651183    1.00001651195    1.00001664715    1.00007570853    
1.0000729197    1.0000081806    1.00000803515    1.00000803501    1.00000803501    
1.00000803501    1.00000803501    1.00000803515    1.0000081806    1.0000729197    
1.00007291429    1.000008165    1.00000801953    1.00000801939    1.00000801939    
1.00000801939    1.00000801939    1.00000801953    1.000008165    1.00007291429    
1.00007291429    1.00000816497    1.0000080195    1.00000801936    1.00000801936    
1.00000801936    1.00000801936    1.0000080195    1.00000816497    1.00007291429    
1.00007291428    1.00000816497    1.0000080195    1.00000801936    1.00000801936    
1.00000801936    1.00000801936    1.0000080195    1.00000816497    1.00007291428    
1.00007291428    1.00000816495    1.00000801948    1.00000801934    1.00000801934    
1.00000801934    1.00000801934    1.00000801948    1.00000816495    1.00007291428    
1.00007290889    1.00000814999    1.0000080045    1.00000800436    1.00000800436    
1.00000800436    1.00000800436    1.0000080045    1.00000814999    1.00007290889    
1.00007012187    0.999999976671    0.999999821662    0.999999821506    0.999999821505    
0.999999821505    0.999999821506    0.999999821662    0.999999976671    1.00007012187    
0.99845300695    0.996298213306    0.996293898257    0.996293891472    0.996293891463    
0.996293891463    0.996293891472    0.996293898257    0.996298213306    0.99845300695    

1226.11919172    1239.40562347    1239.42692098    1239.42694127    1239.42694129    
1239.42694129    1239.42694127    1239.42692098    1239.40562347    1226.11919172    
1239.54937572    1239.54383138    1239.5438116    1239.54381158    1239.54381158    
1239.54381158    1239.54381158    1239.5438116    1239.54383138    1239.54937572    
1239.55094962    1239.53542245    1239.53538733    1239.5353873    1239.5353873    
1239.5353873    1239.5353873    1239.53538733    1239.53542245    1239.55094962    
1239.55094154    1239.53540506    1239.53536992    1239.53536989    1239.53536989    
1239.53536989    1239.53536989    1239.53536992    1239.53540506    1239.55094154    
1239.55094153    1239.53540503    1239.5353699    1239.53536986    1239.53536986    
1239.53536986    1239.53536986    1239.5353699    1239.53540503    1239.55094153    
1239.55094153    1239.53540503    1239.5353699    1239.53536986    1239.53536986    
1239.53536986    1239.53536986    1239.5353699    1239.53540503    1239.55094153    
1239.55094151    1239.53540501    1239.53536987    1239.53536983    1239.53536983    
1239.53536983    1239.53536983    1239.53536987    1239.53540501    1239.55094151    
1239.5509336    1239.53538815    1239.53535299    1239.53535296    1239.53535296    
1239.53535296    1239.53535296    1239.53535299    1239.53538815    1239.5509336    
1239.55256545    1239.52720215    1239.52715209    1239.52715204    1239.52715204    
1239.52715204    1239.52715204    1239.52715209    1239.52720215    1239.55256545    
1253.26497905    1239.6625731    1239.64097216    1239.64095164    1239.64095162    
1239.64095162    1239.64095164    1239.64097216    1239.6625731    1253.26497905    

2     4     3     1     4     2     5     6     6     5     7     8     8     7     9     10     10     9     11     12     12     11     13     14     14     13     15     16     16     15     17     18     18     17     19     20     20     19     21     22     3     4     24     23     4     6     25     24     6     8     26     25     8     10     27     26     10     12     28     27     12     14     29     28     14     16     30     29     16     18     31     30     18     20     32     31     20     22     33     32     23     24     35     34     24     25     36     35     25     26     37     36     26     27     38     37     27     28     39     38     28     29     40     39     29     30     41     40     30     31     42     41     31     32     43     42     32     33     44     43     34     35     46     45     35     36     47     46     36     37     48     47     37     38     49     48     38     39     50     49     39     40     51     50     40     41     52     51     41     42     53     52     42     43     54     53     43     44     55     54     45     46     57     56     46     47     58     57     47     48     59     58     48     49     60     59     49     50     61     60     50     51     62     61     51     52     63     62     52     53     64     63     53     54     65     64     54     55     66     65     56     57     68     67     57     58     69     68     58     59     70     69     59     60     71     70     60     61     72     71     61     62     73     72     62     63     74     73     63     64     75     74     64     65     76     75     65     66     77     76     67     68     79     78     68     69     80     79     69     70     81     80     70     71     82     81     71     72     83     82     72     73     84     83     73     74     85     84     74     75     86     85     75     76     87     86     76     77     88     87     78     79     90     89     79     80     91     90     80     81     92     91     81     82     93     92     82     83     94     93     83     84     95     94     84     85     96     95     85     86     97     96     86     87     98     97     87     88     99     98     89     90     101     100     90     91     102     101     91     92     103     102     92     93     104     103     93     94     105     104     94     95     106     105     95     96     107     106     96     97     108     107     97     98     109     108     98     99     110     109     100     101     111     112     101     102     113     111     102     103     114     113     103     104     115     114     104     105     116     115     105     106     117     116     106     107     118     117     107     108     119     118     108     109     120     119     109     110     121     120     

