title = " tecplot file for process Mesh " 
variables = "x",  "y", "z", "cell_type" 
zone N = 134 E = 266 DATAPACKING = BLOCK,  VARLOCATION = ([4]=CELLCENTERED), ZONETYPE=FETRIANGLE 
0.000000e+00     
3.504530e-02     5.000000e-02     0.000000e+00     7.809667e-02     1.000000e-01     
4.826802e-02     0.000000e+00     1.275237e-01     1.500000e-01     4.224543e-02     
0.000000e+00     4.241831e-02     0.000000e+00     1.775394e-01     2.000000e-01     
2.277493e-01     2.500000e-01     4.270475e-02     0.000000e+00     2.778786e-01     
3.000000e-01     4.302612e-02     0.000000e+00     3.279603e-01     3.500000e-01     
4.312560e-02     0.000000e+00     3.780940e-01     4.000000e-01     4.269604e-02     
0.000000e+00     4.082723e-02     0.000000e+00     4.321054e-02     0.000000e+00     
0.000000e+00     4.290599e-01     4.500000e-01     4.103826e-02     0.000000e+00     
4.843752e-01     5.000000e-01     3.308939e-02     1.033148e-01     8.168447e-02     
8.475184e-02     8.491604e-02     8.566741e-02     8.615109e-02     8.599716e-02     
8.443399e-02     7.849405e-02     1.540885e-01     2.051809e-01     2.555644e-01     
3.057996e-01     3.556830e-01     4.050964e-01     4.533436e-01     8.517182e-02     
5.380715e-01     4.958489e-01     1.284570e-01     1.827028e-01     2.330869e-01     
2.837797e-01     3.337692e-01     3.832987e-01     4.317659e-01     5.680531e-01     
1.261198e-01     1.277903e-01     1.289374e-01     1.294192e-01     1.290086e-01     
1.274456e-01     1.636300e-01     4.774755e-01     5.234088e-01     2.103139e-01     
2.624642e-01     3.119632e-01     3.617993e-01     4.118317e-01     1.280598e-01     
1.692048e-01     1.712962e-01     1.726296e-01     1.731112e-01     1.732489e-01     
4.612672e-01     5.493897e-01     1.737134e-01     2.125438e-01     2.469971e-01     
2.899390e-01     3.392150e-01     3.898250e-01     2.157922e-01     2.164303e-01     
2.177527e-01     4.426752e-01     5.034044e-01     2.614481e-01     2.189156e-01     
2.583059e-01     2.613203e-01     3.148335e-01     3.648203e-01     2.949442e-01     
3.035964e-01     5.014941e-01     5.588447e-01     3.382358e-01     4.163409e-01     
2.635171e-01     3.081648e-01     3.093086e-01     4.697922e-01     5.216942e-01     
3.880932e-01     4.410134e-01     4.931935e-01     3.558399e-01     3.523311e-01     
4.125360e-01     3.905382e-01     4.648011e-01     5.175348e-01     4.353659e-01     
4.872408e-01     3.986179e-01     4.510646e-01     
1.000000e+00     
9.653978e-01     1.000000e+00     9.500000e-01     9.591499e-01     1.000000e+00     
9.200420e-01     9.000000e-01     9.570043e-01     1.000000e+00     8.690802e-01     
8.500000e-01     8.199933e-01     8.000000e-01     9.557907e-01     1.000000e+00     
9.555302e-01     1.000000e+00     7.702584e-01     7.500000e-01     9.555187e-01     
1.000000e+00     7.200506e-01     7.000000e-01     9.555384e-01     1.000000e+00     
6.693786e-01     6.500000e-01     9.554173e-01     1.000000e+00     6.182826e-01     
6.000000e-01     5.676443e-01     5.500000e-01     4.319317e-01     4.000000e-01     
4.500000e-01     9.547906e-01     1.000000e+00     4.825803e-01     5.000000e-01     
9.510482e-01     1.000000e+00     5.250917e-01     9.160554e-01     8.826597e-01     
8.400161e-01     7.910909e-01     7.410913e-01     6.902130e-01     6.382286e-01     
5.842854e-01     5.252822e-01     9.118493e-01     9.112024e-01     9.110454e-01     
9.112501e-01     9.111319e-01     9.108354e-01     9.099121e-01     4.663205e-01     
9.199157e-01     9.045406e-01     8.664056e-01     8.674161e-01     8.660579e-01     
8.672297e-01     8.670942e-01     8.666536e-01     8.664424e-01     8.737750e-01     
8.131874e-01     7.633104e-01     7.126410e-01     6.609250e-01     6.078781e-01     
5.531581e-01     8.306418e-01     8.671792e-01     8.692126e-01     8.175902e-01     
8.238444e-01     8.235979e-01     8.227927e-01     8.221272e-01     4.981015e-01     
7.866428e-01     7.363855e-01     6.850658e-01     6.327463e-01     5.796719e-01     
8.230052e-01     8.203937e-01     5.261520e-01     7.618445e-01     7.840273e-01     
7.807004e-01     7.797191e-01     7.781046e-01     7.104273e-01     6.581366e-01     
6.059870e-01     7.777390e-01     8.307130e-01     7.370726e-01     5.533941e-01     
6.831898e-01     6.323493e-01     7.383609e-01     7.347833e-01     7.023747e-01     
6.588338e-01     7.812629e-01     7.645317e-01     6.929365e-01     7.325514e-01     
5.807235e-01     6.089521e-01     5.561979e-01     7.317086e-01     7.269527e-01     
6.877857e-01     6.860416e-01     6.824040e-01     6.405831e-01     5.842705e-01     
6.429600e-01     6.054063e-01     6.379650e-01     6.334985e-01     5.957828e-01     
5.876560e-01     5.609960e-01     5.431305e-01     
0.000000e+00     
0.000000e+00     0.000000e+00     0.000000e+00     0.000000e+00     0.000000e+00     
0.000000e+00     0.000000e+00     0.000000e+00     0.000000e+00     0.000000e+00     
0.000000e+00     0.000000e+00     0.000000e+00     0.000000e+00     0.000000e+00     
0.000000e+00     0.000000e+00     0.000000e+00     0.000000e+00     0.000000e+00     
0.000000e+00     0.000000e+00     0.000000e+00     0.000000e+00     0.000000e+00     
0.000000e+00     0.000000e+00     0.000000e+00     0.000000e+00     0.000000e+00     
0.000000e+00     0.000000e+00     0.000000e+00     0.000000e+00     0.000000e+00     
0.000000e+00     0.000000e+00     0.000000e+00     0.000000e+00     0.000000e+00     
0.000000e+00     0.000000e+00     0.000000e+00     0.000000e+00     0.000000e+00     
0.000000e+00     0.000000e+00     0.000000e+00     0.000000e+00     0.000000e+00     
0.000000e+00     0.000000e+00     0.000000e+00     0.000000e+00     0.000000e+00     
0.000000e+00     0.000000e+00     0.000000e+00     0.000000e+00     0.000000e+00     
0.000000e+00     0.000000e+00     0.000000e+00     0.000000e+00     0.000000e+00     
0.000000e+00     0.000000e+00     0.000000e+00     0.000000e+00     0.000000e+00     
0.000000e+00     0.000000e+00     0.000000e+00     0.000000e+00     0.000000e+00     
0.000000e+00     0.000000e+00     0.000000e+00     0.000000e+00     0.000000e+00     
0.000000e+00     0.000000e+00     0.000000e+00     0.000000e+00     0.000000e+00     
0.000000e+00     0.000000e+00     0.000000e+00     0.000000e+00     0.000000e+00     
0.000000e+00     0.000000e+00     0.000000e+00     0.000000e+00     0.000000e+00     
0.000000e+00     0.000000e+00     0.000000e+00     0.000000e+00     0.000000e+00     
0.000000e+00     0.000000e+00     0.000000e+00     0.000000e+00     0.000000e+00     
0.000000e+00     0.000000e+00     0.000000e+00     0.000000e+00     0.000000e+00     
0.000000e+00     0.000000e+00     0.000000e+00     0.000000e+00     0.000000e+00     
0.000000e+00     0.000000e+00     0.000000e+00     0.000000e+00     0.000000e+00     
0.000000e+00     0.000000e+00     0.000000e+00     0.000000e+00     0.000000e+00     
0.000000e+00     0.000000e+00     0.000000e+00     0.000000e+00     0.000000e+00     
0.000000e+00     0.000000e+00     0.000000e+00     

0      
0      0      0      0      0      0      0      0      0      0      
0      0      0      0      0      0      0      0      0      0      
0      0      0      0      0      0      0      0      0      0      
0      0      0      0      0      0      0      0      0      0      
0      0      0      0      0      0      0      0      0      0      
0      0      0      0      0      0      0      0      0      0      
0      0      0      0      0      0      0      0      0      0      
0      0      0      0      0      0      0      0      0      0      
0      0      0      0      0      0      0      0      0      0      
0      0      0      0      0      0      0      0      0      0      
0      0      0      0      0      0      0      0      0      0      
0      0      0      0      0      0      0      0      0      0      
0      0      0      0      0      0      0      0      0      0      
0      0      0      0      0      0      0      0      0      0      
0      0      0      0      0      0      0      0      0      0      
0      0      0      0      0      0      0      0      0      0      
0      0      0      0      0      0      0      0      0      0      
0      0      0      0      0      0      0      0      0      0      
0      0      0      0      0      0      0      0      0      0      
0      0      0      0      0      0      0      0      0      0      
0      0      0      0      0      0      0      0      0      0      
0      0      0      0      0      0      0      0      0      0      
0      0      0      1      1      1      1      1      1      1      
1      1      1      1      1      1      1      1      1      1      
1      1      1      1      1      1      1      1      1      1      
1      1      1      1      1      1      1      1      1      1      
1      1      1      1      1      

1      2      3      
2      1      4      
3      2      5      
2      4      7      
5      2      7      
3      5      6      
6      5      9      
7      4      8      
7      8      11      
9      5      45      
6      9      10      
10      9      15      
11      8      12      
7      11      46      
11      12      13      
13      12      14      
11      13      47      
13      14      19      
15      9      54      
10      15      16      
16      15      17      
17      15      55      
16      17      18      
18      17      21      
19      14      20      
13      19      48      
19      20      23      
21      17      56      
18      21      22      
22      21      25      
23      20      24      
19      23      49      
23      24      27      
25      21      57      
22      25      26      
26      25      29      
27      24      28      
23      27      50      
27      28      31      
29      25      58      
26      29      30      
30      29      38      
31      28      32      
27      31      51      
31      32      33      
33      32      34      
31      33      52      
33      34      44      
35      37      36      
37      35      40      
38      29      59      
30      38      39      
39      38      42      
40      35      61      
37      40      41      
41      40      44      
42      38      60      
39      42      43      
44      34      41      
33      44      53      
44      40      53      
5      7      45      
9      45      54      
45      7      46      
46      11      47      
45      46      64      
47      13      48      
46      47      64      
48      19      49      
47      48      72      
49      23      50      
48      49      73      
50      27      51      
49      50      74      
51      31      52      
50      51      75      
52      33      53      
51      52      76      
52      53      77      
15      54      55      
54      45      64      
17      55      56      
55      54      65      
21      56      57      
56      55      66      
25      57      58      
57      56      67      
29      58      59      
58      57      68      
38      59      60      
59      58      69      
42      60      63      
60      59      70      
40      61      53      
53      61      86      
63      60      79      
42      63      62      
62      63      80      
54      64      65      
64      47      72      
55      65      66      
65      64      78      
56      66      67      
66      65      81      
57      67      68      
67      66      82      
58      68      69      
68      67      83      
59      69      70      
69      68      84      
60      70      79      
70      69      85      
72      48      73      
64      72      78      
73      49      74      
72      73      87      
74      50      75      
73      74      88      
75      51      76      
74      75      89      
76      52      77      
75      76      90      
77      53      86      
76      77      91      
78      72      87      
65      78      81      
79      70      92      
63      79      80      
62      80      71      
71      80      93      
66      81      82      
81      78      87      
67      82      83      
82      81      96      
68      83      84      
83      82      97      
69      84      85      
84      83      98      
70      85      92      
85      84      99      
77      86      94      
87      73      88      
88      74      89      
87      88      95      
89      75      90      
88      89      100      
90      76      91      
89      90      101      
91      77      94      
90      91      102      
80      79      104      
81      87      95      
79      92      104      
92      85      103      
93      80      104      
91      94      106      
95      88      100      
81      95      96      
82      96      97      
96      95      105      
83      97      98      
97      96      105      
84      98      99      
98      97      109      
85      99      103      
99      98      110      
100      89      101      
95      100      105      
101      90      102      
100      101      107      
102      91      106      
101      102      108      
103      99      116      
92      103      113      
93      104      113      
104      92      113      
105      100      107      
97      105      109      
102      106      117      
107      101      108      
105      107      111      
108      102      117      
107      108      112      
98      109      110      
109      105      111      
99      110      116      
110      109      115      
109      111      115      
111      107      112      
112      108      118      
111      112      115      
113      103      120      
93      113      114      
114      113      121      
110      115      122      
116      110      122      
103      116      120      
108      117      118      
115      112      125      
112      118      125      
118      117      119      
118      119      126      
113      120      121      
120      116      123      
121      120      124      
122      115      125      
116      122      123      
120      123      124      
123      122      127      
124      123      129      
122      125      127      
125      118      126      
125      126      128      
123      127      129      
127      125      128      
128      126      133      
127      128      131      
124      129      130      
129      127      131      
130      129      132      
131      128      133      
129      131      132      
132      131      134      
131      133      134      
43      39       43      
39      30       39      
30      26       30      
26      22       26      
22      18       22      
18      16       18      
16      10       16      
10      6       10      
6      3       6      
3      1       3      
1      4       1      
4      8       4      
8      12       8      
12      14       12      
14      20       14      
20      24       20      
24      28       24      
28      32       28      
32      34       32      
34      41       34      
41      37       41      
37      36       37      
42      43       42      
62      42       62      
71      62       71      
93      71       93      
114      93       114      
121      114       121      
124      121       124      
130      124       130      
132      130       132      
36      35       36      
35      61       35      
61      86       61      
86      94       86      
94      106       94      
106      117       106      
117      119       117      
119      126       119      
126      133       126      
133      134       133      
134      132       134      
