title = " tecplot file for process Mesh " 
variables = "x",  "y", "z", "cell_type" 
zone N = 134 E = 266 DATAPACKING = BLOCK,  VARLOCATION = ([4]=CELLCENTERED), ZONETYPE=FETRIANGLE 
1.000000e+00     
9.649025e-01     1.000000e+00     9.500000e-01     9.515532e-01     1.000000e+00     
9.217791e-01     9.000000e-01     9.574920e-01     1.000000e+00     8.722682e-01     
8.500000e-01     9.572484e-01     1.000000e+00     8.221962e-01     8.000000e-01     
9.569637e-01     1.000000e+00     7.719948e-01     7.500000e-01     7.219509e-01     
7.000000e-01     9.567597e-01     1.000000e+00     9.568816e-01     1.000000e+00     
6.719715e-01     6.500000e-01     9.575570e-01     1.000000e+00     6.219395e-01     
6.000000e-01     9.595938e-01     1.000000e+00     5.723633e-01     1.000000e+00     
9.594520e-01     1.000000e+00     9.673212e-01     9.158210e-01     9.133528e-01     
8.962777e-01     9.178216e-01     9.145568e-01     9.142612e-01     9.135998e-01     
9.134962e-01     9.142155e-01     9.162910e-01     9.224564e-01     8.452652e-01     
7.940090e-01     7.436150e-01     6.935620e-01     6.437391e-01     5.928651e-01     
5.380715e-01     8.705749e-01     8.158331e-01     7.650509e-01     7.143199e-01     
6.649603e-01     6.167704e-01     8.688362e-01     8.706623e-01     5.680531e-01     
8.724985e-01     8.706602e-01     8.698548e-01     8.702606e-01     8.717333e-01     
8.740189e-01     8.345226e-01     7.867549e-01     7.338008e-01     6.839192e-01     
8.240590e-01     6.357436e-01     8.252691e-01     5.932296e-01     8.283060e-01     
8.735977e-01     8.260816e-01     8.256962e-01     8.270620e-01     8.285477e-01     
5.493897e-01     8.271898e-01     8.287191e-01     7.832079e-01     7.478891e-01     
7.029550e-01     6.511651e-01     6.001169e-01     7.799872e-01     7.818809e-01     
7.840104e-01     7.312196e-01     7.811211e-01     7.354086e-01     7.388393e-01     
7.845077e-01     6.731209e-01     6.143415e-01     6.948958e-01     7.830008e-01     
6.859115e-01     4.426752e-01     5.014941e-01     5.588447e-01     6.478583e-01     
7.419274e-01     7.366525e-01     7.039835e-01     7.392699e-01     4.697922e-01     
5.216942e-01     5.679653e-01     5.966887e-01     6.275178e-01     6.592261e-01     
4.931935e-01     5.446602e-01     6.970248e-01     6.924013e-01     5.724970e-01     
6.024051e-01     5.175348e-01     6.450443e-01     6.486771e-01     5.422412e-01     
5.964700e-01     6.015224e-01     5.618447e-01     
1.000000e+00     
9.653840e-01     9.500000e-01     1.000000e+00     9.200060e-01     9.000000e-01     
9.591337e-01     1.000000e+00     8.690329e-01     8.500000e-01     9.570105e-01     
1.000000e+00     8.199514e-01     8.000000e-01     9.559074e-01     1.000000e+00     
7.702488e-01     7.500000e-01     9.559340e-01     1.000000e+00     9.564813e-01     
1.000000e+00     7.200991e-01     7.000000e-01     6.694918e-01     6.500000e-01     
9.573254e-01     1.000000e+00     6.184450e-01     6.000000e-01     9.581213e-01     
1.000000e+00     5.678327e-01     5.500000e-01     9.593734e-01     4.500000e-01     
4.827921e-01     5.000000e-01     5.252483e-01     4.668322e-01     4.129190e-01     
9.160061e-01     8.825860e-01     8.399138e-01     7.909844e-01     7.410457e-01     
6.902823e-01     6.384212e-01     5.845782e-01     5.256548e-01     9.118747e-01     
9.115341e-01     9.121419e-01     9.137919e-01     9.156698e-01     9.169632e-01     
9.199157e-01     8.662968e-01     8.674275e-01     8.666499e-01     8.693062e-01     
8.720094e-01     8.753159e-01     3.913762e-01     4.443438e-01     8.737750e-01     
8.129685e-01     7.630594e-01     7.124731e-01     6.609412e-01     6.081008e-01     
5.536018e-01     8.304394e-01     8.174241e-01     8.246807e-01     8.268591e-01     
3.690739e-01     8.313791e-01     4.211422e-01     8.385554e-01     7.862266e-01     
4.988157e-01     7.357980e-01     6.845711e-01     6.325485e-01     5.798507e-01     
8.203937e-01     4.738627e-01     5.268479e-01     7.609711e-01     7.836495e-01     
7.814664e-01     7.842957e-01     7.946717e-01     7.090111e-01     6.568244e-01     
6.052780e-01     7.354129e-01     4.498079e-01     6.792976e-01     6.292353e-01     
5.535611e-01     7.382499e-01     7.389798e-01     6.978611e-01     5.018284e-01     
6.471917e-01     7.777390e-01     7.812629e-01     7.645317e-01     6.899947e-01     
5.792316e-01     4.781032e-01     6.022748e-01     5.293962e-01     7.317086e-01     
7.269527e-01     7.185738e-01     6.820019e-01     6.366538e-01     5.943174e-01     
6.824040e-01     6.783049e-01     5.580857e-01     5.075288e-01     6.315419e-01     
5.789723e-01     6.334985e-01     4.852853e-01     5.407052e-01     5.851244e-01     
4.612991e-01     5.173959e-01     5.425107e-01     
0.000000e+00     
0.000000e+00     0.000000e+00     0.000000e+00     0.000000e+00     0.000000e+00     
0.000000e+00     0.000000e+00     0.000000e+00     0.000000e+00     0.000000e+00     
0.000000e+00     0.000000e+00     0.000000e+00     0.000000e+00     0.000000e+00     
0.000000e+00     0.000000e+00     0.000000e+00     0.000000e+00     0.000000e+00     
0.000000e+00     0.000000e+00     0.000000e+00     0.000000e+00     0.000000e+00     
0.000000e+00     0.000000e+00     0.000000e+00     0.000000e+00     0.000000e+00     
0.000000e+00     0.000000e+00     0.000000e+00     0.000000e+00     0.000000e+00     
0.000000e+00     0.000000e+00     0.000000e+00     0.000000e+00     0.000000e+00     
0.000000e+00     0.000000e+00     0.000000e+00     0.000000e+00     0.000000e+00     
0.000000e+00     0.000000e+00     0.000000e+00     0.000000e+00     0.000000e+00     
0.000000e+00     0.000000e+00     0.000000e+00     0.000000e+00     0.000000e+00     
0.000000e+00     0.000000e+00     0.000000e+00     0.000000e+00     0.000000e+00     
0.000000e+00     0.000000e+00     0.000000e+00     0.000000e+00     0.000000e+00     
0.000000e+00     0.000000e+00     0.000000e+00     0.000000e+00     0.000000e+00     
0.000000e+00     0.000000e+00     0.000000e+00     0.000000e+00     0.000000e+00     
0.000000e+00     0.000000e+00     0.000000e+00     0.000000e+00     0.000000e+00     
0.000000e+00     0.000000e+00     0.000000e+00     0.000000e+00     0.000000e+00     
0.000000e+00     0.000000e+00     0.000000e+00     0.000000e+00     0.000000e+00     
0.000000e+00     0.000000e+00     0.000000e+00     0.000000e+00     0.000000e+00     
0.000000e+00     0.000000e+00     0.000000e+00     0.000000e+00     0.000000e+00     
0.000000e+00     0.000000e+00     0.000000e+00     0.000000e+00     0.000000e+00     
0.000000e+00     0.000000e+00     0.000000e+00     0.000000e+00     0.000000e+00     
0.000000e+00     0.000000e+00     0.000000e+00     0.000000e+00     0.000000e+00     
0.000000e+00     0.000000e+00     0.000000e+00     0.000000e+00     0.000000e+00     
0.000000e+00     0.000000e+00     0.000000e+00     0.000000e+00     0.000000e+00     
0.000000e+00     0.000000e+00     0.000000e+00     0.000000e+00     0.000000e+00     
0.000000e+00     0.000000e+00     0.000000e+00     

0      
0      0      0      0      0      0      0      0      0      0      
0      0      0      0      0      0      0      0      0      0      
0      0      0      0      0      0      0      0      0      0      
0      0      0      0      0      0      0      0      0      0      
0      0      0      0      0      0      0      0      0      0      
0      0      0      0      0      0      0      0      0      0      
0      0      0      0      0      0      0      0      0      0      
0      0      0      0      0      0      0      0      0      0      
0      0      0      0      0      0      0      0      0      0      
0      0      0      0      0      0      0      0      0      0      
0      0      0      0      0      0      0      0      0      0      
0      0      0      0      0      0      0      0      0      0      
0      0      0      0      0      0      0      0      0      0      
0      0      0      0      0      0      0      0      0      0      
0      0      0      0      0      0      0      0      0      0      
0      0      0      0      0      0      0      0      0      0      
0      0      0      0      0      0      0      0      0      0      
0      0      0      0      0      0      0      0      0      0      
0      0      0      0      0      0      0      0      0      0      
0      0      0      0      0      0      0      0      0      0      
0      0      0      0      0      0      0      0      0      0      
0      0      0      0      0      0      0      0      0      0      
0      0      1      1      1      1      1      1      1      1      
1      1      1      1      1      1      1      1      1      1      
1      1      1      1      1      1      1      1      1      1      
1      1      1      1      1      1      1      1      1      1      
1      1      1      1      1      

1      2      3      
2      1      4      
3      2      5      
2      4      7      
5      2      7      
3      5      6      
6      5      9      
7      4      8      
7      8      11      
9      5      43      
6      9      10      
10      9      13      
11      8      12      
7      11      42      
11      12      15      
13      9      44      
10      13      14      
14      13      17      
15      12      16      
11      15      51      
15      16      19      
17      13      45      
14      17      18      
18      17      23      
19      16      20      
15      19      52      
19      20      21      
21      20      22      
19      21      53      
21      22      27      
23      17      46      
18      23      24      
24      23      25      
25      23      47      
24      25      26      
26      25      29      
27      22      28      
21      27      54      
27      28      31      
29      25      48      
26      29      30      
30      29      33      
31      28      32      
27      31      55      
31      32      35      
33      29      49      
30      33      34      
34      33      39      
31      35      56      
38      37      36      
37      38      39      
39      33      50      
34      39      38      
37      39      50      
5      7      42      
42      11      51      
5      42      43      
9      43      44      
43      42      58      
13      44      45      
44      43      58      
17      45      46      
45      44      67      
23      46      47      
46      45      68      
25      47      48      
47      46      69      
29      48      49      
48      47      70      
33      49      50      
49      48      71      
50      49      72      
51      15      52      
42      51      58      
52      19      53      
51      52      59      
53      21      54      
52      53      60      
54      27      55      
53      54      61      
55      31      56      
54      55      62      
56      35      57      
55      56      63      
56      57      66      
37      50      40      
40      50      82      
58      51      59      
44      58      67      
59      52      60      
58      59      73      
60      53      61      
59      60      74      
61      54      62      
60      61      75      
62      55      63      
61      62      76      
63      56      66      
62      63      78      
40      65      41      
65      40      82      
41      65      64      
64      65      79      
63      66      80      
45      67      68      
67      58      73      
46      68      69      
68      67      81      
47      69      70      
69      68      83      
48      70      71      
70      69      84      
49      71      72      
71      70      85      
50      72      82      
72      71      86      
67      73      81      
73      59      74      
74      60      75      
73      74      81      
75      61      76      
74      75      91      
76      62      78      
75      76      92      
78      63      80      
76      78      93      
79      65      88      
64      79      77      
80      66      87      
78      80      94      
68      81      83      
82      72      89      
65      82      88      
69      83      84      
83      81      90      
70      84      85      
84      83      95      
71      85      86      
85      84      96      
72      86      89      
86      85      97      
81      74      90      
80      87      94      
88      82      89      
79      88      99      
89      86      102      
83      90      95      
90      74      91      
91      75      92      
90      91      98      
92      76      93      
91      92      98      
93      78      94      
92      93      103      
93      94      104      
84      95      96      
95      90      98      
85      96      97      
96      95      100      
86      97      102      
97      96      101      
88      89      106      
94      87      110      
95      98      100      
98      92      103      
99      88      106      
96      100      101      
100      98      105      
97      101      112      
101      100      107      
89      102      106      
102      97      112      
103      93      104      
98      103      105      
104      94      110      
103      104      111      
100      105      107      
105      103      111      
99      106      113      
106      102      115      
101      107      114      
107      105      111      
110      87      109      
110      109      117      
104      110      118      
111      104      119      
102      112      115      
112      101      114      
107      111      120      
113      106      115      
112      114      124      
114      107      121      
113      115      125      
115      112      124      
116      109      108      
109      116      117      
110      117      118      
117      116      122      
104      118      119      
118      117      123      
111      119      120      
119      118      123      
120      119      126      
107      120      121      
114      121      124      
121      120      127      
117      122      123      
123      122      128      
119      123      126      
115      124      125      
125      124      130      
124      121      130      
120      126      127      
126      123      128      
121      127      130      
127      126      131      
125      130      129      
129      130      133      
126      128      131      
130      127      133      
127      131      134      
129      133      132      
133      127      134      
1      4       1      
4      8       4      
8      12       8      
12      16       12      
16      20       16      
20      22       20      
22      28       22      
28      32       28      
3      1       3      
6      3       6      
10      6       10      
14      10       14      
18      14       18      
24      18       24      
26      24       26      
30      26       30      
34      30       34      
36      38       36      
38      34       38      
37      36       37      
40      37       40      
41      40       41      
64      41       64      
77      64       77      
79      77       79      
99      79       99      
113      99       113      
125      113       125      
129      125       129      
132      129       132      
133      132       133      
131      134       131      
134      133       134      
32      35       32      
35      57       35      
57      66       57      
66      87       66      
109      108       109      
87      109       87      
108      116       108      
116      122       116      
122      128       122      
128      131       128      
