title = " tecplot file for process Mesh " 
variables = "x",  "y", "z", "cell_type" 
zone N = 134 E = 266 DATAPACKING = BLOCK,  VARLOCATION = ([4]=CELLCENTERED), ZONETYPE=FETRIANGLE 
0.000000e+00     
3.504530e-02     5.000000e-02     0.000000e+00     7.809667e-02     1.000000e-01     
4.826802e-02     0.000000e+00     1.275237e-01     1.500000e-01     4.224543e-02     
0.000000e+00     4.241831e-02     0.000000e+00     1.775394e-01     2.000000e-01     
2.277493e-01     2.500000e-01     4.270475e-02     0.000000e+00     2.778786e-01     
3.000000e-01     4.302612e-02     0.000000e+00     3.279603e-01     3.500000e-01     
4.312560e-02     3.780940e-01     4.000000e-01     6.000000e-01     5.723633e-01     
5.500000e-01     4.290599e-01     4.500000e-01     4.843752e-01     5.000000e-01     
5.283147e-01     1.033148e-01     8.168447e-02     8.475184e-02     8.491604e-02     
8.566741e-02     8.615109e-02     8.599716e-02     8.443399e-02     1.540885e-01     
2.051809e-01     2.555644e-01     3.057996e-01     3.556830e-01     4.050964e-01     
4.533436e-01     5.380715e-01     4.958489e-01     1.284570e-01     1.827028e-01     
2.330869e-01     2.837797e-01     3.337692e-01     3.832987e-01     4.317659e-01     
5.680531e-01     1.261198e-01     1.277903e-01     1.289374e-01     1.294192e-01     
1.290086e-01     1.274456e-01     1.636300e-01     4.774755e-01     5.234088e-01     
2.103139e-01     2.624642e-01     3.119632e-01     3.617993e-01     4.118317e-01     
1.692048e-01     1.712962e-01     1.726296e-01     1.731112e-01     1.732489e-01     
4.612672e-01     5.493897e-01     1.737134e-01     2.125438e-01     2.469971e-01     
2.899390e-01     3.392150e-01     3.898250e-01     2.157922e-01     2.164303e-01     
2.177527e-01     4.426752e-01     5.034044e-01     2.614481e-01     2.189156e-01     
2.583059e-01     2.613203e-01     3.148335e-01     3.648203e-01     2.949442e-01     
3.035964e-01     5.014941e-01     3.382358e-01     4.163409e-01     2.635171e-01     
2.651055e-01     3.081648e-01     3.093086e-01     4.697922e-01     3.880932e-01     
3.116635e-01     4.410134e-01     4.931935e-01     3.558399e-01     3.523311e-01     
3.143336e-01     3.555528e-01     4.125360e-01     3.905382e-01     4.648011e-01     
5.175348e-01     3.626588e-01     3.587848e-01     4.353659e-01     5.422412e-01     
4.872408e-01     3.986179e-01     4.057670e-01     4.030521e-01     5.105804e-01     
4.474414e-01     4.510646e-01     4.776945e-01     
1.000000e+00     
9.653978e-01     1.000000e+00     9.500000e-01     9.591499e-01     1.000000e+00     
9.200420e-01     9.000000e-01     9.570043e-01     1.000000e+00     8.690802e-01     
8.500000e-01     8.199933e-01     8.000000e-01     9.557907e-01     1.000000e+00     
9.555302e-01     1.000000e+00     7.702584e-01     7.500000e-01     9.555187e-01     
1.000000e+00     7.200506e-01     7.000000e-01     9.555384e-01     1.000000e+00     
6.693786e-01     9.554173e-01     1.000000e+00     1.000000e+00     9.593734e-01     
1.000000e+00     9.547906e-01     1.000000e+00     9.510482e-01     1.000000e+00     
9.651173e-01     9.160554e-01     8.826597e-01     8.400161e-01     7.910909e-01     
7.410913e-01     6.902130e-01     6.382286e-01     5.842854e-01     9.118493e-01     
9.112024e-01     9.110454e-01     9.112501e-01     9.111319e-01     9.108354e-01     
9.099121e-01     9.199157e-01     9.045406e-01     8.664056e-01     8.674161e-01     
8.660579e-01     8.672297e-01     8.670942e-01     8.666536e-01     8.664424e-01     
8.737750e-01     8.131874e-01     7.633104e-01     7.126410e-01     6.609250e-01     
6.078781e-01     5.531581e-01     8.306418e-01     8.671792e-01     8.692126e-01     
8.175902e-01     8.238444e-01     8.235979e-01     8.227927e-01     8.221272e-01     
7.866428e-01     7.363855e-01     6.850658e-01     6.327463e-01     5.796719e-01     
8.230052e-01     8.203937e-01     5.261520e-01     7.618445e-01     7.840273e-01     
7.807004e-01     7.797191e-01     7.781046e-01     7.104273e-01     6.581366e-01     
6.059870e-01     7.777390e-01     8.307130e-01     7.370726e-01     5.533941e-01     
6.831898e-01     6.323493e-01     7.383609e-01     7.347833e-01     7.023747e-01     
6.588338e-01     7.812629e-01     6.929365e-01     7.325514e-01     5.807235e-01     
5.281119e-01     6.089521e-01     5.561979e-01     7.317086e-01     6.877857e-01     
5.034326e-01     6.860416e-01     6.824040e-01     6.405831e-01     5.842705e-01     
4.499113e-01     5.324049e-01     6.429600e-01     6.054063e-01     6.379650e-01     
6.334985e-01     4.247711e-01     4.797882e-01     5.957828e-01     5.851244e-01     
5.876560e-01     5.609960e-01     4.587713e-01     5.110770e-01     5.350755e-01     
4.901646e-01     5.431305e-01     5.116107e-01     
0.000000e+00     
0.000000e+00     0.000000e+00     0.000000e+00     0.000000e+00     0.000000e+00     
0.000000e+00     0.000000e+00     0.000000e+00     0.000000e+00     0.000000e+00     
0.000000e+00     0.000000e+00     0.000000e+00     0.000000e+00     0.000000e+00     
0.000000e+00     0.000000e+00     0.000000e+00     0.000000e+00     0.000000e+00     
0.000000e+00     0.000000e+00     0.000000e+00     0.000000e+00     0.000000e+00     
0.000000e+00     0.000000e+00     0.000000e+00     0.000000e+00     0.000000e+00     
0.000000e+00     0.000000e+00     0.000000e+00     0.000000e+00     0.000000e+00     
0.000000e+00     0.000000e+00     0.000000e+00     0.000000e+00     0.000000e+00     
0.000000e+00     0.000000e+00     0.000000e+00     0.000000e+00     0.000000e+00     
0.000000e+00     0.000000e+00     0.000000e+00     0.000000e+00     0.000000e+00     
0.000000e+00     0.000000e+00     0.000000e+00     0.000000e+00     0.000000e+00     
0.000000e+00     0.000000e+00     0.000000e+00     0.000000e+00     0.000000e+00     
0.000000e+00     0.000000e+00     0.000000e+00     0.000000e+00     0.000000e+00     
0.000000e+00     0.000000e+00     0.000000e+00     0.000000e+00     0.000000e+00     
0.000000e+00     0.000000e+00     0.000000e+00     0.000000e+00     0.000000e+00     
0.000000e+00     0.000000e+00     0.000000e+00     0.000000e+00     0.000000e+00     
0.000000e+00     0.000000e+00     0.000000e+00     0.000000e+00     0.000000e+00     
0.000000e+00     0.000000e+00     0.000000e+00     0.000000e+00     0.000000e+00     
0.000000e+00     0.000000e+00     0.000000e+00     0.000000e+00     0.000000e+00     
0.000000e+00     0.000000e+00     0.000000e+00     0.000000e+00     0.000000e+00     
0.000000e+00     0.000000e+00     0.000000e+00     0.000000e+00     0.000000e+00     
0.000000e+00     0.000000e+00     0.000000e+00     0.000000e+00     0.000000e+00     
0.000000e+00     0.000000e+00     0.000000e+00     0.000000e+00     0.000000e+00     
0.000000e+00     0.000000e+00     0.000000e+00     0.000000e+00     0.000000e+00     
0.000000e+00     0.000000e+00     0.000000e+00     0.000000e+00     0.000000e+00     
0.000000e+00     0.000000e+00     0.000000e+00     0.000000e+00     0.000000e+00     
0.000000e+00     0.000000e+00     0.000000e+00     

0      
0      0      0      0      0      0      0      0      0      0      
0      0      0      0      0      0      0      0      0      0      
0      0      0      0      0      0      0      0      0      0      
0      0      0      0      0      0      0      0      0      0      
0      0      0      0      0      0      0      0      0      0      
0      0      0      0      0      0      0      0      0      0      
0      0      0      0      0      0      0      0      0      0      
0      0      0      0      0      0      0      0      0      0      
0      0      0      0      0      0      0      0      0      0      
0      0      0      0      0      0      0      0      0      0      
0      0      0      0      0      0      0      0      0      0      
0      0      0      0      0      0      0      0      0      0      
0      0      0      0      0      0      0      0      0      0      
0      0      0      0      0      0      0      0      0      0      
0      0      0      0      0      0      0      0      0      0      
0      0      0      0      0      0      0      0      0      0      
0      0      0      0      0      0      0      0      0      0      
0      0      0      0      0      0      0      0      0      0      
0      0      0      0      0      0      0      0      0      0      
0      0      0      0      0      0      0      0      0      0      
0      0      0      0      0      0      0      0      0      0      
0      0      0      0      0      0      0      0      0      0      
0      0      1      1      1      1      1      1      1      1      
1      1      1      1      1      1      1      1      1      1      
1      1      1      1      1      1      1      1      1      1      
1      1      1      1      1      1      1      1      1      1      
1      1      1      1      1      

1      2      3      
2      1      4      
3      2      5      
2      4      7      
5      2      7      
3      5      6      
6      5      9      
7      4      8      
7      8      11      
9      5      38      
6      9      10      
10      9      15      
11      8      12      
7      11      39      
11      12      13      
13      12      14      
11      13      40      
13      14      19      
15      9      46      
10      15      16      
16      15      17      
17      15      47      
16      17      18      
18      17      21      
19      14      20      
13      19      41      
19      20      23      
21      17      48      
18      21      22      
22      21      25      
23      20      24      
19      23      42      
23      24      27      
25      21      49      
22      25      26      
26      25      28      
23      27      43      
28      25      50      
26      28      29      
29      28      33      
32      31      30      
31      32      37      
33      28      51      
29      33      34      
34      33      35      
35      33      52      
34      35      36      
36      35      37      
37      32      36      
31      37      53      
37      35      53      
5      7      38      
9      38      46      
38      7      39      
39      11      40      
38      39      55      
40      13      41      
39      40      55      
41      19      42      
40      41      63      
42      23      43      
41      42      64      
43      27      44      
42      43      65      
43      44      66      
15      46      47      
46      38      55      
17      47      48      
47      46      56      
21      48      49      
48      47      57      
25      49      50      
49      48      58      
28      50      51      
50      49      59      
33      51      52      
51      50      60      
35      52      54      
52      51      61      
53      35      54      
54      52      70      
53      54      71      
46      55      56      
55      40      63      
47      56      57      
56      55      69      
48      57      58      
57      56      72      
49      58      59      
58      57      73      
50      59      60      
59      58      74      
51      60      61      
60      59      75      
52      61      70      
61      60      76      
63      41      64      
55      63      69      
64      42      65      
63      64      77      
65      43      66      
64      65      78      
66      44      67      
65      66      79      
45      67      44      
67      45      68      
66      67      80      
67      68      81      
69      63      77      
56      69      72      
70      61      82      
54      70      71      
53      71      62      
62      71      83      
57      72      73      
72      69      77      
58      73      74      
73      72      86      
59      74      75      
74      73      87      
60      75      76      
75      74      88      
61      76      82      
76      75      89      
77      64      78      
78      65      79      
77      78      85      
79      66      80      
78      79      90      
80      67      81      
79      80      91      
81      68      84      
80      81      92      
71      70      94      
72      77      85      
70      82      94      
82      76      93      
83      71      94      
81      84      96      
85      78      90      
72      85      86      
73      86      87      
86      85      95      
74      87      88      
87      86      95      
75      88      89      
88      87      99      
76      89      93      
89      88      100      
90      79      91      
85      90      95      
91      80      92      
90      91      97      
92      81      96      
91      92      98      
93      89      105      
82      93      103      
83      94      103      
94      82      103      
95      90      97      
87      95      99      
92      96      106      
97      91      98      
95      97      101      
98      92      106      
97      98      102      
88      99      100      
99      95      101      
89      100      105      
100      99      104      
99      101      104      
101      97      102      
102      98      108      
101      102      104      
100      104      111      
105      100      111      
93      105      110      
106      96      107      
98      106      108      
106      107      109      
104      102      115      
102      108      115      
108      106      109      
109      107      112      
108      109      116      
110      105      113      
111      104      115      
105      111      113      
109      112      118      
110      113      114      
113      111      119      
114      113      121      
111      115      119      
115      108      116      
116      109      118      
115      116      120      
118      112      124      
116      118      128      
113      119      121      
119      115      120      
120      116      128      
119      120      125      
114      121      122      
121      119      125      
122      121      127      
123      124      117      
124      123      129      
117      124      112      
118      124      130      
125      120      128      
121      125      127      
122      127      126      
126      127      131      
128      118      130      
124      129      130      
127      125      133      
125      128      133      
130      129      132      
128      130      133      
131      127      133      
130      132      133      
133      132      134      
131      133      134      
3      1       3      
6      3       6      
10      6       10      
16      10       16      
18      16       18      
22      18       22      
26      22       26      
29      26       29      
30      32       30      
34      29       34      
36      34       36      
32      36       32      
1      4       1      
4      8       4      
8      12       8      
12      14       12      
14      20       14      
20      24       20      
31      30       31      
53      31       53      
62      53       62      
83      62       83      
93      103       93      
103      83       103      
110      93       110      
114      110       114      
122      114       122      
126      122       126      
123      129       123      
131      126       131      
129      132       129      
132      134       132      
134      131       134      
24      27       24      
27      44       27      
44      45       44      
45      68       45      
68      84       68      
84      96       84      
96      107       96      
107      112       107      
112      117       112      
117      123       117      
