title = " tecplot file for process Mesh " 
variables = "x",  "y", "z", "cell_type" 
zone N = 402 E = 510 DATAPACKING = BLOCK,  VARLOCATION = ([4]=CELLCENTERED), ZONETYPE=FEBRICK 
-2.500000e-01     
-2.500000e-01     -2.500000e-01     -2.500000e-01     -2.500000e-01     -2.500000e-01     
-2.500000e-01     -2.500000e-01     -2.500000e-01     -2.500000e-01     -2.500000e-01     
-2.500000e-01     -2.500000e-01     -2.500000e-01     -2.500000e-01     -2.500000e-01     
-2.500000e-01     -2.500000e-01     -2.500000e-01     -2.500000e-01     -2.500000e-01     
-2.500000e-01     -2.500000e-01     -2.500000e-01     -2.500000e-01     -2.500000e-01     
-2.500000e-01     -2.500000e-01     -2.500000e-01     -2.500000e-01     -2.500000e-01     
-2.500000e-01     -2.500000e-01     -2.500000e-01     -2.500000e-01     -2.500000e-01     
-2.500000e-01     -2.500000e-01     -2.500000e-01     -2.500000e-01     -2.500000e-01     
-2.500000e-01     -2.500000e-01     -2.500000e-01     -2.500000e-01     -2.500000e-01     
-2.500000e-01     -2.500000e-01     -2.500000e-01     -2.500000e-01     -2.500000e-01     
-2.500000e-01     -2.500000e-01     -2.500000e-01     -2.500000e-01     -2.500000e-01     
-2.500000e-01     -2.500000e-01     -2.500000e-01     -2.500000e-01     -2.500000e-01     
-2.500000e-01     -2.500000e-01     -2.500000e-01     -2.500000e-01     -2.500000e-01     
-2.500000e-01     -3.000000e-01     -3.000000e-01     -3.000000e-01     -3.000000e-01     
-3.000000e-01     -3.000000e-01     -3.000000e-01     -3.000000e-01     -3.000000e-01     
-3.000000e-01     -3.000000e-01     -3.000000e-01     -3.000000e-01     -3.000000e-01     
-3.000000e-01     -3.000000e-01     -3.000000e-01     -3.000000e-01     -3.000000e-01     
-3.000000e-01     -3.000000e-01     -3.000000e-01     -3.000000e-01     -3.000000e-01     
-3.000000e-01     -3.000000e-01     -3.000000e-01     -3.000000e-01     -3.000000e-01     
-3.000000e-01     -3.000000e-01     -3.000000e-01     -3.000000e-01     -3.000000e-01     
-3.000000e-01     -3.000000e-01     -3.000000e-01     -3.000000e-01     -3.000000e-01     
-3.000000e-01     -3.000000e-01     -3.000000e-01     -3.000000e-01     -3.000000e-01     
-3.000000e-01     -3.000000e-01     -3.000000e-01     -3.000000e-01     -3.000000e-01     
-3.000000e-01     -3.000000e-01     -3.000000e-01     -3.000000e-01     -3.000000e-01     
-3.000000e-01     -3.000000e-01     -3.000000e-01     -3.000000e-01     -3.000000e-01     
-3.000000e-01     -3.000000e-01     -3.000000e-01     -3.000000e-01     -3.000000e-01     
-3.000000e-01     -3.000000e-01     -3.000000e-01     -3.500000e-01     -3.500000e-01     
-3.500000e-01     -3.500000e-01     -3.500000e-01     -3.500000e-01     -3.500000e-01     
-3.500000e-01     -3.500000e-01     -3.500000e-01     -3.500000e-01     -3.500000e-01     
-3.500000e-01     -3.500000e-01     -3.500000e-01     -3.500000e-01     -3.500000e-01     
-3.500000e-01     -3.500000e-01     -3.500000e-01     -3.500000e-01     -3.500000e-01     
-3.500000e-01     -3.500000e-01     -3.500000e-01     -3.500000e-01     -3.500000e-01     
-3.500000e-01     -3.500000e-01     -3.500000e-01     -3.500000e-01     -3.500000e-01     
-3.500000e-01     -3.500000e-01     -3.500000e-01     -3.500000e-01     -3.500000e-01     
-3.500000e-01     -3.500000e-01     -3.500000e-01     -3.500000e-01     -3.500000e-01     
-3.500000e-01     -3.500000e-01     -3.500000e-01     -3.500000e-01     -3.500000e-01     
-3.500000e-01     -3.500000e-01     -3.500000e-01     -3.500000e-01     -3.500000e-01     
-3.500000e-01     -3.500000e-01     -3.500000e-01     -3.500000e-01     -3.500000e-01     
-3.500000e-01     -3.500000e-01     -3.500000e-01     -3.500000e-01     -3.500000e-01     
-3.500000e-01     -3.500000e-01     -3.500000e-01     -3.500000e-01     -3.500000e-01     
-4.000000e-01     -4.000000e-01     -4.000000e-01     -4.000000e-01     -4.000000e-01     
-4.000000e-01     -4.000000e-01     -4.000000e-01     -4.000000e-01     -4.000000e-01     
-4.000000e-01     -4.000000e-01     -4.000000e-01     -4.000000e-01     -4.000000e-01     
-4.000000e-01     -4.000000e-01     -4.000000e-01     -4.000000e-01     -4.000000e-01     
-4.000000e-01     -4.000000e-01     -4.000000e-01     -4.000000e-01     -4.000000e-01     
-4.000000e-01     -4.000000e-01     -4.000000e-01     -4.000000e-01     -4.000000e-01     
-4.000000e-01     -4.000000e-01     -4.000000e-01     -4.000000e-01     -4.000000e-01     
-4.000000e-01     -4.000000e-01     -4.000000e-01     -4.000000e-01     -4.000000e-01     
-4.000000e-01     -4.000000e-01     -4.000000e-01     -4.000000e-01     -4.000000e-01     
-4.000000e-01     -4.000000e-01     -4.000000e-01     -4.000000e-01     -4.000000e-01     
-4.000000e-01     -4.000000e-01     -4.000000e-01     -4.000000e-01     -4.000000e-01     
-4.000000e-01     -4.000000e-01     -4.000000e-01     -4.000000e-01     -4.000000e-01     
-4.000000e-01     -4.000000e-01     -4.000000e-01     -4.000000e-01     -4.000000e-01     
-4.000000e-01     -4.000000e-01     -4.500000e-01     -4.500000e-01     -4.500000e-01     
-4.500000e-01     -4.500000e-01     -4.500000e-01     -4.500000e-01     -4.500000e-01     
-4.500000e-01     -4.500000e-01     -4.500000e-01     -4.500000e-01     -4.500000e-01     
-4.500000e-01     -4.500000e-01     -4.500000e-01     -4.500000e-01     -4.500000e-01     
-4.500000e-01     -4.500000e-01     -4.500000e-01     -4.500000e-01     -4.500000e-01     
-4.500000e-01     -4.500000e-01     -4.500000e-01     -4.500000e-01     -4.500000e-01     
-4.500000e-01     -4.500000e-01     -4.500000e-01     -4.500000e-01     -4.500000e-01     
-4.500000e-01     -4.500000e-01     -4.500000e-01     -4.500000e-01     -4.500000e-01     
-4.500000e-01     -4.500000e-01     -4.500000e-01     -4.500000e-01     -4.500000e-01     
-4.500000e-01     -4.500000e-01     -4.500000e-01     -4.500000e-01     -4.500000e-01     
-4.500000e-01     -4.500000e-01     -4.500000e-01     -4.500000e-01     -4.500000e-01     
-4.500000e-01     -4.500000e-01     -4.500000e-01     -4.500000e-01     -4.500000e-01     
-4.500000e-01     -4.500000e-01     -4.500000e-01     -4.500000e-01     -4.500000e-01     
-4.500000e-01     -4.500000e-01     -4.500000e-01     -4.500000e-01     -5.000000e-01     
-5.000000e-01     -5.000000e-01     -5.000000e-01     -5.000000e-01     -5.000000e-01     
-5.000000e-01     -5.000000e-01     -5.000000e-01     -5.000000e-01     -5.000000e-01     
-5.000000e-01     -5.000000e-01     -5.000000e-01     -5.000000e-01     -5.000000e-01     
-5.000000e-01     -5.000000e-01     -5.000000e-01     -5.000000e-01     -5.000000e-01     
-5.000000e-01     -5.000000e-01     -5.000000e-01     -5.000000e-01     -5.000000e-01     
-5.000000e-01     -5.000000e-01     -5.000000e-01     -5.000000e-01     -5.000000e-01     
-5.000000e-01     -5.000000e-01     -5.000000e-01     -5.000000e-01     -5.000000e-01     
-5.000000e-01     -5.000000e-01     -5.000000e-01     -5.000000e-01     -5.000000e-01     
-5.000000e-01     -5.000000e-01     -5.000000e-01     -5.000000e-01     -5.000000e-01     
-5.000000e-01     -5.000000e-01     -5.000000e-01     -5.000000e-01     -5.000000e-01     
-5.000000e-01     -5.000000e-01     -5.000000e-01     -5.000000e-01     -5.000000e-01     
-5.000000e-01     -5.000000e-01     -5.000000e-01     -5.000000e-01     -5.000000e-01     
-5.000000e-01     -5.000000e-01     -5.000000e-01     -5.000000e-01     -5.000000e-01     
-5.000000e-01     
0.000000e+00     
5.000000e-02     5.000000e-02     0.000000e+00     1.000000e-01     1.000000e-01     
1.500000e-01     1.500000e-01     2.000000e-01     2.000000e-01     2.500000e-01     
2.500000e-01     3.000000e-01     3.000000e-01     3.500000e-01     3.500000e-01     
4.000000e-01     4.000000e-01     4.500000e-01     4.500000e-01     5.000000e-01     
5.000000e-01     0.000000e+00     5.000000e-02     1.000000e-01     1.500000e-01     
2.000000e-01     2.500000e-01     3.000000e-01     3.500000e-01     4.000000e-01     
4.500000e-01     5.000000e-01     0.000000e+00     5.000000e-02     1.000000e-01     
1.500000e-01     2.000000e-01     2.500000e-01     3.000000e-01     3.500000e-01     
4.000000e-01     4.500000e-01     5.000000e-01     1.387779e-17     5.000000e-02     
1.000000e-01     1.500000e-01     2.000000e-01     2.500000e-01     3.000000e-01     
3.500000e-01     4.000000e-01     4.500000e-01     5.000000e-01     2.500000e-01     
3.000000e-01     3.500000e-01     4.000000e-01     4.500000e-01     5.000000e-01     
2.500000e-01     3.000000e-01     3.500000e-01     4.000000e-01     4.500000e-01     
5.000000e-01     5.000000e-02     0.000000e+00     1.000000e-01     1.500000e-01     
2.000000e-01     2.500000e-01     3.000000e-01     3.500000e-01     4.000000e-01     
4.500000e-01     5.000000e-01     0.000000e+00     5.000000e-02     1.000000e-01     
1.500000e-01     2.000000e-01     2.500000e-01     3.000000e-01     3.500000e-01     
4.000000e-01     4.500000e-01     5.000000e-01     0.000000e+00     5.000000e-02     
1.000000e-01     1.500000e-01     2.000000e-01     2.500000e-01     3.000000e-01     
3.500000e-01     4.000000e-01     4.500000e-01     5.000000e-01     0.000000e+00     
5.000000e-02     1.000000e-01     1.500000e-01     2.000000e-01     2.500000e-01     
3.000000e-01     3.500000e-01     4.000000e-01     4.500000e-01     5.000000e-01     
1.665335e-17     5.000000e-02     1.000000e-01     1.500000e-01     2.000000e-01     
2.500000e-01     3.000000e-01     3.500000e-01     4.000000e-01     4.500000e-01     
5.000000e-01     2.500000e-01     3.000000e-01     3.500000e-01     4.000000e-01     
4.500000e-01     5.000000e-01     2.500000e-01     3.000000e-01     3.500000e-01     
4.000000e-01     4.500000e-01     5.000000e-01     5.000000e-02     0.000000e+00     
1.000000e-01     1.500000e-01     2.000000e-01     2.500000e-01     3.000000e-01     
3.500000e-01     4.000000e-01     4.500000e-01     5.000000e-01     0.000000e+00     
5.000000e-02     1.000000e-01     1.500000e-01     2.000000e-01     2.500000e-01     
3.000000e-01     3.500000e-01     4.000000e-01     4.500000e-01     5.000000e-01     
0.000000e+00     5.000000e-02     1.000000e-01     1.500000e-01     2.000000e-01     
2.500000e-01     3.000000e-01     3.500000e-01     4.000000e-01     4.500000e-01     
5.000000e-01     0.000000e+00     5.000000e-02     1.000000e-01     1.500000e-01     
2.000000e-01     2.500000e-01     3.000000e-01     3.500000e-01     4.000000e-01     
4.500000e-01     5.000000e-01     1.942890e-17     5.000000e-02     1.000000e-01     
1.500000e-01     2.000000e-01     2.500000e-01     3.000000e-01     3.500000e-01     
4.000000e-01     4.500000e-01     5.000000e-01     2.500000e-01     3.000000e-01     
3.500000e-01     4.000000e-01     4.500000e-01     5.000000e-01     2.500000e-01     
3.000000e-01     3.500000e-01     4.000000e-01     4.500000e-01     5.000000e-01     
5.000000e-02     0.000000e+00     1.000000e-01     1.500000e-01     2.000000e-01     
2.500000e-01     3.000000e-01     3.500000e-01     4.000000e-01     4.500000e-01     
5.000000e-01     0.000000e+00     5.000000e-02     1.000000e-01     1.500000e-01     
2.000000e-01     2.500000e-01     3.000000e-01     3.500000e-01     4.000000e-01     
4.500000e-01     5.000000e-01     0.000000e+00     5.000000e-02     1.000000e-01     
1.500000e-01     2.000000e-01     2.500000e-01     3.000000e-01     3.500000e-01     
4.000000e-01     4.500000e-01     5.000000e-01     0.000000e+00     5.000000e-02     
1.000000e-01     1.500000e-01     2.000000e-01     2.500000e-01     3.000000e-01     
3.500000e-01     4.000000e-01     4.500000e-01     5.000000e-01     2.220446e-17     
5.000000e-02     1.000000e-01     1.500000e-01     2.000000e-01     2.500000e-01     
3.000000e-01     3.500000e-01     4.000000e-01     4.500000e-01     5.000000e-01     
2.500000e-01     3.000000e-01     3.500000e-01     4.000000e-01     4.500000e-01     
5.000000e-01     2.500000e-01     3.000000e-01     3.500000e-01     4.000000e-01     
4.500000e-01     5.000000e-01     5.000000e-02     0.000000e+00     1.000000e-01     
1.500000e-01     2.000000e-01     2.500000e-01     3.000000e-01     3.500000e-01     
4.000000e-01     4.500000e-01     5.000000e-01     0.000000e+00     5.000000e-02     
1.000000e-01     1.500000e-01     2.000000e-01     2.500000e-01     3.000000e-01     
3.500000e-01     4.000000e-01     4.500000e-01     5.000000e-01     0.000000e+00     
5.000000e-02     1.000000e-01     1.500000e-01     2.000000e-01     2.500000e-01     
3.000000e-01     3.500000e-01     4.000000e-01     4.500000e-01     5.000000e-01     
0.000000e+00     5.000000e-02     1.000000e-01     1.500000e-01     2.000000e-01     
2.500000e-01     3.000000e-01     3.500000e-01     4.000000e-01     4.500000e-01     
5.000000e-01     2.498002e-17     5.000000e-02     1.000000e-01     1.500000e-01     
2.000000e-01     2.500000e-01     3.000000e-01     3.500000e-01     4.000000e-01     
4.500000e-01     5.000000e-01     2.500000e-01     3.000000e-01     3.500000e-01     
4.000000e-01     4.500000e-01     5.000000e-01     2.500000e-01     3.000000e-01     
3.500000e-01     4.000000e-01     4.500000e-01     5.000000e-01     5.000000e-02     
0.000000e+00     1.000000e-01     1.500000e-01     2.000000e-01     2.500000e-01     
3.000000e-01     3.500000e-01     4.000000e-01     4.500000e-01     5.000000e-01     
0.000000e+00     5.000000e-02     1.000000e-01     1.500000e-01     2.000000e-01     
2.500000e-01     3.000000e-01     3.500000e-01     4.000000e-01     4.500000e-01     
5.000000e-01     0.000000e+00     5.000000e-02     1.000000e-01     1.500000e-01     
2.000000e-01     2.500000e-01     3.000000e-01     3.500000e-01     4.000000e-01     
4.500000e-01     5.000000e-01     0.000000e+00     5.000000e-02     1.000000e-01     
1.500000e-01     2.000000e-01     2.500000e-01     3.000000e-01     3.500000e-01     
4.000000e-01     4.500000e-01     5.000000e-01     2.775558e-17     5.000000e-02     
1.000000e-01     1.500000e-01     2.000000e-01     2.500000e-01     3.000000e-01     
3.500000e-01     4.000000e-01     4.500000e-01     5.000000e-01     2.500000e-01     
3.000000e-01     3.500000e-01     4.000000e-01     4.500000e-01     5.000000e-01     
2.500000e-01     3.000000e-01     3.500000e-01     4.000000e-01     4.500000e-01     
5.000000e-01     
-5.000000e-02     
-5.000000e-02     0.000000e+00     0.000000e+00     -5.000000e-02     0.000000e+00     
-5.000000e-02     0.000000e+00     -5.000000e-02     0.000000e+00     -5.000000e-02     
0.000000e+00     -5.000000e-02     0.000000e+00     -5.000000e-02     0.000000e+00     
-5.000000e-02     0.000000e+00     -5.000000e-02     0.000000e+00     -5.000000e-02     
0.000000e+00     -1.000000e-01     -1.000000e-01     -1.000000e-01     -1.000000e-01     
-1.000000e-01     -1.000000e-01     -1.000000e-01     -1.000000e-01     -1.000000e-01     
-1.000000e-01     -1.000000e-01     -1.500000e-01     -1.500000e-01     -1.500000e-01     
-1.500000e-01     -1.500000e-01     -1.500000e-01     -1.500000e-01     -1.500000e-01     
-1.500000e-01     -1.500000e-01     -1.500000e-01     -2.000000e-01     -2.000000e-01     
-2.000000e-01     -2.000000e-01     -2.000000e-01     -2.000000e-01     -2.000000e-01     
-2.000000e-01     -2.000000e-01     -2.000000e-01     -2.000000e-01     -2.500000e-01     
-2.500000e-01     -2.500000e-01     -2.500000e-01     -2.500000e-01     -2.500000e-01     
-3.000000e-01     -3.000000e-01     -3.000000e-01     -3.000000e-01     -3.000000e-01     
-3.000000e-01     0.000000e+00     0.000000e+00     0.000000e+00     0.000000e+00     
0.000000e+00     0.000000e+00     0.000000e+00     0.000000e+00     0.000000e+00     
0.000000e+00     0.000000e+00     -5.000000e-02     -5.000000e-02     -5.000000e-02     
-5.000000e-02     -5.000000e-02     -5.000000e-02     -5.000000e-02     -5.000000e-02     
-5.000000e-02     -5.000000e-02     -5.000000e-02     -1.000000e-01     -1.000000e-01     
-1.000000e-01     -1.000000e-01     -1.000000e-01     -1.000000e-01     -1.000000e-01     
-1.000000e-01     -1.000000e-01     -1.000000e-01     -1.000000e-01     -1.500000e-01     
-1.500000e-01     -1.500000e-01     -1.500000e-01     -1.500000e-01     -1.500000e-01     
-1.500000e-01     -1.500000e-01     -1.500000e-01     -1.500000e-01     -1.500000e-01     
-2.000000e-01     -2.000000e-01     -2.000000e-01     -2.000000e-01     -2.000000e-01     
-2.000000e-01     -2.000000e-01     -2.000000e-01     -2.000000e-01     -2.000000e-01     
-2.000000e-01     -2.500000e-01     -2.500000e-01     -2.500000e-01     -2.500000e-01     
-2.500000e-01     -2.500000e-01     -3.000000e-01     -3.000000e-01     -3.000000e-01     
-3.000000e-01     -3.000000e-01     -3.000000e-01     0.000000e+00     0.000000e+00     
0.000000e+00     0.000000e+00     0.000000e+00     0.000000e+00     0.000000e+00     
0.000000e+00     0.000000e+00     0.000000e+00     0.000000e+00     -5.000000e-02     
-5.000000e-02     -5.000000e-02     -5.000000e-02     -5.000000e-02     -5.000000e-02     
-5.000000e-02     -5.000000e-02     -5.000000e-02     -5.000000e-02     -5.000000e-02     
-1.000000e-01     -1.000000e-01     -1.000000e-01     -1.000000e-01     -1.000000e-01     
-1.000000e-01     -1.000000e-01     -1.000000e-01     -1.000000e-01     -1.000000e-01     
-1.000000e-01     -1.500000e-01     -1.500000e-01     -1.500000e-01     -1.500000e-01     
-1.500000e-01     -1.500000e-01     -1.500000e-01     -1.500000e-01     -1.500000e-01     
-1.500000e-01     -1.500000e-01     -2.000000e-01     -2.000000e-01     -2.000000e-01     
-2.000000e-01     -2.000000e-01     -2.000000e-01     -2.000000e-01     -2.000000e-01     
-2.000000e-01     -2.000000e-01     -2.000000e-01     -2.500000e-01     -2.500000e-01     
-2.500000e-01     -2.500000e-01     -2.500000e-01     -2.500000e-01     -3.000000e-01     
-3.000000e-01     -3.000000e-01     -3.000000e-01     -3.000000e-01     -3.000000e-01     
0.000000e+00     0.000000e+00     0.000000e+00     0.000000e+00     0.000000e+00     
0.000000e+00     0.000000e+00     0.000000e+00     0.000000e+00     0.000000e+00     
0.000000e+00     -5.000000e-02     -5.000000e-02     -5.000000e-02     -5.000000e-02     
-5.000000e-02     -5.000000e-02     -5.000000e-02     -5.000000e-02     -5.000000e-02     
-5.000000e-02     -5.000000e-02     -1.000000e-01     -1.000000e-01     -1.000000e-01     
-1.000000e-01     -1.000000e-01     -1.000000e-01     -1.000000e-01     -1.000000e-01     
-1.000000e-01     -1.000000e-01     -1.000000e-01     -1.500000e-01     -1.500000e-01     
-1.500000e-01     -1.500000e-01     -1.500000e-01     -1.500000e-01     -1.500000e-01     
-1.500000e-01     -1.500000e-01     -1.500000e-01     -1.500000e-01     -2.000000e-01     
-2.000000e-01     -2.000000e-01     -2.000000e-01     -2.000000e-01     -2.000000e-01     
-2.000000e-01     -2.000000e-01     -2.000000e-01     -2.000000e-01     -2.000000e-01     
-2.500000e-01     -2.500000e-01     -2.500000e-01     -2.500000e-01     -2.500000e-01     
-2.500000e-01     -3.000000e-01     -3.000000e-01     -3.000000e-01     -3.000000e-01     
-3.000000e-01     -3.000000e-01     0.000000e+00     0.000000e+00     0.000000e+00     
0.000000e+00     0.000000e+00     0.000000e+00     0.000000e+00     0.000000e+00     
0.000000e+00     0.000000e+00     0.000000e+00     -5.000000e-02     -5.000000e-02     
-5.000000e-02     -5.000000e-02     -5.000000e-02     -5.000000e-02     -5.000000e-02     
-5.000000e-02     -5.000000e-02     -5.000000e-02     -5.000000e-02     -1.000000e-01     
-1.000000e-01     -1.000000e-01     -1.000000e-01     -1.000000e-01     -1.000000e-01     
-1.000000e-01     -1.000000e-01     -1.000000e-01     -1.000000e-01     -1.000000e-01     
-1.500000e-01     -1.500000e-01     -1.500000e-01     -1.500000e-01     -1.500000e-01     
-1.500000e-01     -1.500000e-01     -1.500000e-01     -1.500000e-01     -1.500000e-01     
-1.500000e-01     -2.000000e-01     -2.000000e-01     -2.000000e-01     -2.000000e-01     
-2.000000e-01     -2.000000e-01     -2.000000e-01     -2.000000e-01     -2.000000e-01     
-2.000000e-01     -2.000000e-01     -2.500000e-01     -2.500000e-01     -2.500000e-01     
-2.500000e-01     -2.500000e-01     -2.500000e-01     -3.000000e-01     -3.000000e-01     
-3.000000e-01     -3.000000e-01     -3.000000e-01     -3.000000e-01     0.000000e+00     
0.000000e+00     0.000000e+00     0.000000e+00     0.000000e+00     0.000000e+00     
0.000000e+00     0.000000e+00     0.000000e+00     0.000000e+00     0.000000e+00     
-5.000000e-02     -5.000000e-02     -5.000000e-02     -5.000000e-02     -5.000000e-02     
-5.000000e-02     -5.000000e-02     -5.000000e-02     -5.000000e-02     -5.000000e-02     
-5.000000e-02     -1.000000e-01     -1.000000e-01     -1.000000e-01     -1.000000e-01     
-1.000000e-01     -1.000000e-01     -1.000000e-01     -1.000000e-01     -1.000000e-01     
-1.000000e-01     -1.000000e-01     -1.500000e-01     -1.500000e-01     -1.500000e-01     
-1.500000e-01     -1.500000e-01     -1.500000e-01     -1.500000e-01     -1.500000e-01     
-1.500000e-01     -1.500000e-01     -1.500000e-01     -2.000000e-01     -2.000000e-01     
-2.000000e-01     -2.000000e-01     -2.000000e-01     -2.000000e-01     -2.000000e-01     
-2.000000e-01     -2.000000e-01     -2.000000e-01     -2.000000e-01     -2.500000e-01     
-2.500000e-01     -2.500000e-01     -2.500000e-01     -2.500000e-01     -2.500000e-01     
-3.000000e-01     -3.000000e-01     -3.000000e-01     -3.000000e-01     -3.000000e-01     
-3.000000e-01     

0      
0      0      0      0      0      0      0      0      0      0      
0      0      0      0      0      0      0      0      0      0      
0      0      0      0      0      0      0      0      0      0      
0      0      0      0      0      0      0      0      0      0      
0      0      0      0      0      0      0      0      0      0      
0      0      0      0      0      0      0      0      0      0      
0      0      0      0      0      0      0      0      0      0      
0      0      0      0      0      0      0      0      0      0      
0      0      0      0      0      0      0      0      0      0      
0      0      0      0      0      0      0      0      0      0      
0      0      0      0      0      0      0      0      0      0      
0      0      0      0      0      0      0      0      0      0      
0      0      0      0      0      0      0      0      0      0      
0      0      0      0      0      0      0      0      0      0      
0      0      0      0      0      0      0      0      0      0      
0      0      0      0      0      0      0      0      0      0      
0      0      0      0      0      0      0      0      0      0      
0      0      0      0      0      0      0      0      0      0      
0      0      0      0      0      0      0      0      0      0      
0      0      0      0      0      0      0      0      0      0      
0      0      0      0      0      0      0      0      0      0      
0      0      0      0      0      0      0      0      0      0      
0      0      0      0      0      0      0      0      0      0      
0      0      0      0      0      0      0      0      0      0      
0      0      0      0      0      0      0      0      0      1      
1      1      1      1      1      1      1      1      1      1      
1      1      1      1      1      1      1      1      1      1      
1      1      1      1      1      1      1      1      1      1      
1      1      1      1      1      1      1      1      1      1      
1      1      1      1      1      1      1      1      1      1      
1      1      1      1      1      1      1      1      1      1      
1      1      1      1      1      1      1      1      1      1      
1      1      1      1      1      1      1      1      1      1      
1      1      1      1      1      1      1      1      1      1      
1      1      1      1      1      1      1      1      1      1      
1      1      1      1      1      1      1      1      1      1      
1      1      1      1      1      1      1      1      1      1      
1      1      1      1      1      1      1      1      1      1      
1      1      1      1      1      1      1      1      1      1      
1      1      1      1      1      1      1      1      1      1      
1      1      1      1      1      1      1      1      1      1      
1      1      1      1      1      1      1      1      1      1      
1      1      1      1      1      1      1      1      1      1      
1      1      1      1      1      1      1      1      1      1      
1      1      1      1      1      1      1      1      1      1      
1      1      1      1      1      1      1      1      1      1      
1      1      1      1      1      1      1      1      1      1      
1      1      1      1      1      1      1      1      1      1      
1      1      1      1      1      1      1      1      1      1      
1      1      1      1      1      1      1      1      1      1      
1      1      1      1      1      1      1      1      1      

68      80      2      3      70      81      5      6      
3      2      80      68      4      1      79      69      
80      79      1      2      91      90      23      24      
79      80      68      69      146      147      135      136      
70      81      5      6      71      82      7      8      
81      80      2      5      92      91      24      25      
80      81      70      68      147      148      137      135      
71      82      7      8      72      83      9      10      
82      81      5      7      93      92      25      26      
81      82      71      70      148      149      138      137      
72      83      9      10      73      84      11      12      
83      82      7      9      94      93      26      27      
82      83      72      71      149      150      139      138      
73      84      11      12      74      85      13      14      
84      83      9      11      95      94      27      28      
83      84      73      72      150      151      140      139      
74      85      13      14      75      86      15      16      
85      84      11      13      96      95      28      29      
84      85      74      73      151      152      141      140      
75      86      15      16      76      87      17      18      
86      85      13      15      97      96      29      30      
85      86      75      74      152      153      142      141      
76      87      17      18      77      88      19      20      
87      86      15      17      98      97      30      31      
86      87      76      75      153      154      143      142      
77      88      19      20      78      89      21      22      
88      87      17      19      99      98      31      32      
87      88      77      76      154      155      144      143      
89      88      19      21      100      99      32      33      
88      89      78      77      155      156      145      144      
91      90      23      24      102      101      34      35      
90      91      80      79      157      158      147      146      
92      91      24      25      103      102      35      36      
91      92      81      80      158      159      148      147      
93      92      25      26      104      103      36      37      
92      93      82      81      159      160      149      148      
94      93      26      27      105      104      37      38      
93      94      83      82      160      161      150      149      
95      94      27      28      106      105      38      39      
94      95      84      83      161      162      151      150      
96      95      28      29      107      106      39      40      
95      96      85      84      162      163      152      151      
97      96      29      30      108      107      40      41      
96      97      86      85      163      164      153      152      
98      97      30      31      109      108      41      42      
97      98      87      86      164      165      154      153      
99      98      31      32      110      109      42      43      
98      99      88      87      165      166      155      154      
100      99      32      33      111      110      43      44      
99      100      89      88      166      167      156      155      
102      101      34      35      113      112      45      46      
101      102      91      90      168      169      158      157      
103      102      35      36      114      113      46      47      
102      103      92      91      169      170      159      158      
104      103      36      37      115      114      47      48      
103      104      93      92      170      171      160      159      
105      104      37      38      116      115      48      49      
104      105      94      93      171      172      161      160      
106      105      38      39      117      116      49      50      
105      106      95      94      172      173      162      161      
107      106      39      40      118      117      50      51      
106      107      96      95      173      174      163      162      
108      107      40      41      119      118      51      52      
107      108      97      96      174      175      164      163      
109      108      41      42      120      119      52      53      
108      109      98      97      175      176      165      164      
110      109      42      43      121      120      53      54      
109      110      99      98      176      177      166      165      
111      110      43      44      122      121      54      55      