title = " tecplot file for process Mesh " 
variables = "x",  "y", "z", "cell_type" 
zone N = 434 E = 564 DATAPACKING = BLOCK,  VARLOCATION = ([4]=CELLCENTERED), ZONETYPE=FEBRICK 
4.500000e-01     
4.500000e-01     5.000000e-01     5.000000e-01     4.500000e-01     4.500000e-01     
4.500000e-01     4.500000e-01     5.000000e-01     5.000000e-01     4.500000e-01     
4.500000e-01     5.000000e-01     5.000000e-01     4.500000e-01     5.000000e-01     
4.500000e-01     4.500000e-01     5.000000e-01     4.500000e-01     5.000000e-01     
4.500000e-01     4.500000e-01     4.500000e-01     4.500000e-01     4.500000e-01     
4.500000e-01     4.500000e-01     4.500000e-01     4.500000e-01     4.500000e-01     
4.500000e-01     4.500000e-01     4.500000e-01     4.500000e-01     5.000000e-01     
5.000000e-01     4.500000e-01     5.000000e-01     4.500000e-01     4.500000e-01     
4.500000e-01     5.000000e-01     5.000000e-01     4.500000e-01     5.000000e-01     
4.500000e-01     5.000000e-01     4.500000e-01     5.000000e-01     4.500000e-01     
4.500000e-01     5.000000e-01     4.500000e-01     5.000000e-01     4.500000e-01     
5.000000e-01     4.000000e-01     4.000000e-01     4.000000e-01     4.000000e-01     
4.000000e-01     4.000000e-01     4.000000e-01     4.000000e-01     4.000000e-01     
4.000000e-01     4.000000e-01     4.000000e-01     4.000000e-01     4.000000e-01     
4.000000e-01     4.000000e-01     4.000000e-01     4.000000e-01     4.000000e-01     
4.000000e-01     4.000000e-01     4.000000e-01     4.000000e-01     4.000000e-01     
4.000000e-01     4.000000e-01     4.000000e-01     4.000000e-01     4.000000e-01     
4.000000e-01     4.000000e-01     4.000000e-01     4.000000e-01     4.000000e-01     
4.000000e-01     4.000000e-01     4.000000e-01     4.000000e-01     4.000000e-01     
4.000000e-01     3.500000e-01     3.500000e-01     3.500000e-01     3.500000e-01     
3.500000e-01     3.500000e-01     3.500000e-01     3.500000e-01     3.500000e-01     
3.500000e-01     3.500000e-01     3.500000e-01     3.500000e-01     3.500000e-01     
3.500000e-01     3.500000e-01     3.500000e-01     3.500000e-01     3.500000e-01     
3.500000e-01     3.500000e-01     3.500000e-01     3.500000e-01     3.500000e-01     
3.500000e-01     3.500000e-01     3.500000e-01     3.500000e-01     3.500000e-01     
3.500000e-01     3.500000e-01     3.500000e-01     3.500000e-01     3.500000e-01     
3.500000e-01     3.500000e-01     3.500000e-01     3.500000e-01     3.500000e-01     
3.500000e-01     3.500000e-01     3.500000e-01     3.500000e-01     3.500000e-01     
3.500000e-01     3.500000e-01     3.500000e-01     3.500000e-01     3.500000e-01     
3.500000e-01     3.000000e-01     3.000000e-01     3.000000e-01     3.000000e-01     
3.000000e-01     3.000000e-01     3.000000e-01     3.000000e-01     3.000000e-01     
3.000000e-01     3.000000e-01     3.000000e-01     3.000000e-01     3.000000e-01     
3.000000e-01     3.000000e-01     3.000000e-01     3.000000e-01     3.000000e-01     
3.000000e-01     3.000000e-01     3.000000e-01     3.000000e-01     3.000000e-01     
3.000000e-01     3.000000e-01     3.000000e-01     3.000000e-01     3.000000e-01     
3.000000e-01     3.000000e-01     3.000000e-01     3.000000e-01     3.000000e-01     
3.000000e-01     3.000000e-01     3.000000e-01     3.000000e-01     3.000000e-01     
3.000000e-01     3.000000e-01     3.000000e-01     3.000000e-01     3.000000e-01     
3.000000e-01     3.000000e-01     3.000000e-01     3.000000e-01     3.000000e-01     
3.000000e-01     2.500000e-01     2.500000e-01     2.500000e-01     2.500000e-01     
2.500000e-01     2.500000e-01     2.500000e-01     2.500000e-01     2.500000e-01     
2.500000e-01     2.500000e-01     2.500000e-01     2.500000e-01     2.500000e-01     
2.500000e-01     2.500000e-01     2.500000e-01     2.500000e-01     2.500000e-01     
2.500000e-01     2.500000e-01     2.500000e-01     2.500000e-01     2.500000e-01     
2.500000e-01     2.500000e-01     2.500000e-01     2.500000e-01     2.500000e-01     
2.500000e-01     2.500000e-01     2.500000e-01     2.500000e-01     2.500000e-01     
2.500000e-01     2.500000e-01     2.500000e-01     2.500000e-01     2.500000e-01     
2.500000e-01     2.500000e-01     2.500000e-01     2.500000e-01     2.500000e-01     
2.500000e-01     2.500000e-01     2.500000e-01     2.500000e-01     2.000000e-01     
2.000000e-01     2.000000e-01     2.000000e-01     2.000000e-01     2.000000e-01     
2.000000e-01     2.000000e-01     2.000000e-01     2.000000e-01     2.000000e-01     
2.000000e-01     2.000000e-01     2.000000e-01     2.000000e-01     2.000000e-01     
2.000000e-01     2.000000e-01     2.000000e-01     2.000000e-01     2.000000e-01     
2.000000e-01     2.000000e-01     2.000000e-01     2.000000e-01     2.000000e-01     
2.000000e-01     2.000000e-01     2.000000e-01     2.000000e-01     2.000000e-01     
2.000000e-01     2.000000e-01     2.000000e-01     2.000000e-01     2.000000e-01     
2.000000e-01     2.000000e-01     2.000000e-01     2.000000e-01     2.000000e-01     
2.000000e-01     2.000000e-01     2.000000e-01     2.000000e-01     2.000000e-01     
2.000000e-01     2.000000e-01     2.000000e-01     1.500000e-01     1.500000e-01     
1.500000e-01     1.500000e-01     1.500000e-01     1.500000e-01     1.500000e-01     
1.500000e-01     1.500000e-01     1.500000e-01     1.500000e-01     1.500000e-01     
1.500000e-01     1.500000e-01     1.500000e-01     1.500000e-01     1.500000e-01     
1.500000e-01     1.500000e-01     1.500000e-01     1.500000e-01     1.500000e-01     
1.500000e-01     1.500000e-01     1.500000e-01     1.500000e-01     1.500000e-01     
1.500000e-01     1.500000e-01     1.500000e-01     1.500000e-01     1.500000e-01     
1.500000e-01     1.500000e-01     1.500000e-01     1.500000e-01     1.500000e-01     
1.500000e-01     1.500000e-01     1.500000e-01     1.500000e-01     1.500000e-01     
1.500000e-01     1.500000e-01     1.500000e-01     1.500000e-01     1.500000e-01     
1.000000e-01     1.000000e-01     1.000000e-01     1.000000e-01     1.000000e-01     
1.000000e-01     1.000000e-01     1.000000e-01     1.000000e-01     1.000000e-01     
1.000000e-01     1.000000e-01     1.000000e-01     1.000000e-01     1.000000e-01     
1.000000e-01     1.000000e-01     1.000000e-01     1.000000e-01     1.000000e-01     
1.000000e-01     1.000000e-01     1.000000e-01     1.000000e-01     1.000000e-01     
1.000000e-01     1.000000e-01     1.000000e-01     1.000000e-01     1.000000e-01     
1.000000e-01     1.000000e-01     1.000000e-01     1.000000e-01     1.000000e-01     
1.000000e-01     1.000000e-01     1.000000e-01     1.000000e-01     1.000000e-01     
1.000000e-01     1.000000e-01     1.000000e-01     1.000000e-01     1.000000e-01     
1.000000e-01     1.000000e-01     5.000000e-02     5.000000e-02     5.000000e-02     
5.000000e-02     5.000000e-02     5.000000e-02     5.000000e-02     5.000000e-02     
5.000000e-02     5.000000e-02     5.000000e-02     5.000000e-02     5.000000e-02     
5.000000e-02     5.000000e-02     5.000000e-02     5.000000e-02     5.000000e-02     
5.000000e-02     5.000000e-02     5.000000e-02     5.000000e-02     5.000000e-02     
5.000000e-02     5.000000e-02     5.000000e-02     5.000000e-02     5.000000e-02     
0.000000e+00     0.000000e+00     0.000000e+00     0.000000e+00     0.000000e+00     
0.000000e+00     0.000000e+00     0.000000e+00     0.000000e+00     0.000000e+00     
0.000000e+00     0.000000e+00     -5.000000e-02     -5.000000e-02     -5.000000e-02     
-5.000000e-02     -5.000000e-02     -5.000000e-02     
-5.000000e-02     
-5.000000e-02     -5.000000e-02     -5.000000e-02     -1.000000e-01     -1.000000e-01     
1.040834e-17     -1.717376e-17     -1.908196e-17     0.000000e+00     5.000000e-02     
5.000000e-02     5.000000e-02     5.000000e-02     -5.000000e-02     -5.000000e-02     
-1.000000e-01     -9.367507e-18     -1.040834e-17     5.000000e-02     5.000000e-02     
-1.000000e-01     -5.000000e-02     1.249001e-17     5.000000e-02     -1.500000e-01     
-1.000000e-01     -1.500000e-01     -5.000000e-02     2.498002e-17     5.000000e-02     
-1.500000e-01     -1.000000e-01     -5.000000e-02     6.245005e-18     -5.000000e-02     
6.938894e-18     5.000000e-02     5.000000e-02     -1.500000e-01     -1.000000e-01     
-5.000000e-02     -5.000000e-02     -1.000000e-01     1.249001e-17     1.387779e-17     
5.000000e-02     5.000000e-02     -1.000000e-01     -1.000000e-01     -1.500000e-01     
-5.000000e-02     -5.000000e-02     -2.498002e-17     -2.775558e-17     5.000000e-02     
5.000000e-02     -1.000000e-01     -1.000000e-01     -5.000000e-02     -5.000000e-02     
6.938894e-18     -1.526557e-17     5.000000e-02     5.000000e-02     -1.000000e-01     
-5.000000e-02     -8.326673e-18     5.000000e-02     -1.000000e-01     -1.500000e-01     
-5.000000e-02     1.110223e-17     5.000000e-02     1.000000e-01     1.000000e-01     
-1.500000e-01     -1.000000e-01     -5.000000e-02     2.220446e-17     5.000000e-02     
1.000000e-01     -1.500000e-01     -1.000000e-01     -5.000000e-02     5.551115e-18     
5.000000e-02     -1.500000e-01     -1.000000e-01     -5.000000e-02     1.110223e-17     
5.000000e-02     -1.500000e-01     -1.000000e-01     -5.000000e-02     -2.220446e-17     
5.000000e-02     -1.000000e-01     -1.000000e-01     -5.000000e-02     -5.000000e-02     
1.387779e-17     -1.335737e-17     5.000000e-02     5.000000e-02     1.000000e-01     
1.000000e-01     -1.000000e-01     -5.000000e-02     -7.285839e-18     5.000000e-02     
1.000000e-01     -1.000000e-01     -1.500000e-01     -5.000000e-02     9.714451e-18     
5.000000e-02     1.000000e-01     -1.500000e-01     -1.000000e-01     -5.000000e-02     
1.942890e-17     5.000000e-02     1.000000e-01     1.500000e-01     1.500000e-01     
-1.500000e-01     -1.000000e-01     -5.000000e-02     4.857226e-18     5.000000e-02     
1.000000e-01     1.500000e-01     -1.500000e-01     -1.000000e-01     -5.000000e-02     
9.714451e-18     5.000000e-02     1.000000e-01     1.500000e-01     -1.500000e-01     
-1.000000e-01     -5.000000e-02     -1.942890e-17     5.000000e-02     1.000000e-01     
1.500000e-01     -1.000000e-01     -1.000000e-01     -5.000000e-02     -5.000000e-02     
6.938894e-18     -1.144917e-17     5.000000e-02     5.000000e-02     1.000000e-01     
1.000000e-01     -1.000000e-01     -5.000000e-02     -6.245005e-18     5.000000e-02     
1.000000e-01     -1.000000e-01     -5.000000e-02     8.326673e-18     5.000000e-02     
1.000000e-01     1.500000e-01     1.500000e-01     -1.000000e-01     -5.000000e-02     
1.665335e-17     5.000000e-02     1.000000e-01     1.500000e-01     -1.000000e-01     
-5.000000e-02     4.163336e-18     5.000000e-02     1.000000e-01     1.500000e-01     
2.000000e-01     2.000000e-01     -1.000000e-01     -1.500000e-01     -5.000000e-02     
8.326673e-18     5.000000e-02     1.000000e-01     1.500000e-01     -1.500000e-01     
-1.000000e-01     -5.000000e-02     -1.665335e-17     5.000000e-02     1.000000e-01     
1.500000e-01     -1.000000e-01     -1.000000e-01     -5.000000e-02     -5.000000e-02     
-6.938894e-18     -9.540979e-18     5.000000e-02     5.000000e-02     1.000000e-01     
1.000000e-01     -1.000000e-01     -5.000000e-02     -5.204170e-18     5.000000e-02     
1.000000e-01     1.500000e-01     -1.000000e-01     -5.000000e-02     6.938894e-18     
5.000000e-02     1.000000e-01     1.500000e-01     -1.000000e-01     -5.000000e-02     
1.387779e-17     5.000000e-02     1.000000e-01     1.500000e-01     2.000000e-01     
-1.000000e-01     -5.000000e-02     3.469447e-18     5.000000e-02     1.000000e-01     
1.500000e-01     2.000000e-01     -1.000000e-01     -5.000000e-02     6.938894e-18     
5.000000e-02     1.000000e-01     1.500000e-01     -1.000000e-01     -5.000000e-02     
-1.387779e-17     5.000000e-02     1.000000e-01     1.500000e-01     -1.000000e-01     
-1.000000e-01     -5.000000e-02     -5.000000e-02     1.387779e-17     -7.632783e-18     
5.000000e-02     5.000000e-02     1.000000e-01     1.000000e-01     1.500000e-01     
1.500000e-01     -1.000000e-01     -5.000000e-02     -4.163336e-18     5.000000e-02     
1.000000e-01     1.500000e-01     -1.000000e-01     -5.000000e-02     5.551115e-18     
5.000000e-02     1.000000e-01     1.500000e-01     -1.000000e-01     -5.000000e-02     
1.110223e-17     5.000000e-02     1.000000e-01     1.500000e-01     2.000000e-01     
-1.000000e-01     -5.000000e-02     2.775558e-18     5.000000e-02     1.000000e-01     
1.500000e-01     2.000000e-01     -5.000000e-02     5.551115e-18     5.000000e-02     
1.000000e-01     1.500000e-01     2.000000e-01     -5.000000e-02     -1.110223e-17     
5.000000e-02     1.000000e-01     1.500000e-01     -1.000000e-01     -1.000000e-01     
-5.000000e-02     -5.000000e-02     1.387779e-17     -5.724587e-18     5.000000e-02     
5.000000e-02     1.000000e-01     1.000000e-01     1.500000e-01     1.500000e-01     
-1.000000e-01     -5.000000e-02     -3.122502e-18     5.000000e-02     1.000000e-01     
1.500000e-01     -1.000000e-01     -5.000000e-02     4.163336e-18     5.000000e-02     
1.000000e-01     1.500000e-01     -5.000000e-02     8.326673e-18     5.000000e-02     
1.000000e-01     1.500000e-01     2.000000e-01     -5.000000e-02     2.081668e-18     
5.000000e-02     1.000000e-01     1.500000e-01     2.000000e-01     -5.000000e-02     
4.163336e-18     5.000000e-02     1.000000e-01     1.500000e-01     2.000000e-01     
-5.000000e-02     -8.326673e-18     5.000000e-02     1.000000e-01     1.500000e-01     
-1.000000e-01     -1.000000e-01     -5.000000e-02     -5.000000e-02     0.000000e+00     
-3.816392e-18     5.000000e-02     5.000000e-02     1.000000e-01     1.000000e-01     
1.500000e-01     1.500000e-01     -1.000000e-01     -5.000000e-02     -2.081668e-18     
5.000000e-02     1.000000e-01     1.500000e-01     -1.000000e-01     -5.000000e-02     
2.775558e-18     5.000000e-02     1.000000e-01     1.500000e-01     -5.000000e-02     
5.551115e-18     5.000000e-02     1.000000e-01     1.500000e-01     2.000000e-01     
-5.000000e-02     1.387779e-18     5.000000e-02     1.000000e-01     1.500000e-01     
2.000000e-01     -5.000000e-02     2.775558e-18     5.000000e-02     1.000000e-01     
1.500000e-01     2.000000e-01     -5.000000e-02     -5.551115e-18     5.000000e-02     
1.000000e-01     1.500000e-01     -1.000000e-01     -1.000000e-01     -5.000000e-02     
-5.000000e-02     0.000000e+00     -1.908196e-18     -1.000000e-01     -5.000000e-02     
-1.040834e-18     5.000000e-02     -1.000000e-01     -5.000000e-02     1.387779e-18     
5.000000e-02     -5.000000e-02     2.775558e-18     5.000000e-02     1.000000e-01     
1.500000e-01     -5.000000e-02     6.938894e-19     5.000000e-02     1.000000e-01     
1.500000e-01     1.387779e-18     5.000000e-02     1.000000e-01     1.500000e-01     
-1.000000e-01     -1.000000e-01     -5.000000e-02     -5.000000e-02     0.000000e+00     
0.000000e+00     -1.000000e-01     -5.000000e-02     0.000000e+00     -1.000000e-01     
-5.000000e-02     0.000000e+00     -1.000000e-01     -1.000000e-01     -5.000000e-02     
-5.000000e-02     -1.000000e-01     -5.000000e-02     
5.000000e-01     
4.500000e-01     4.500000e-01     5.000000e-01     4.500000e-01     5.000000e-01     
5.000000e-01     4.500000e-01     4.500000e-01     5.000000e-01     5.000000e-01     
4.500000e-01     4.500000e-01     5.000000e-01     4.000000e-01     4.000000e-01     
4.000000e-01     4.000000e-01     4.000000e-01     4.000000e-01     4.000000e-01     
3.500000e-01     3.500000e-01     3.500000e-01     3.500000e-01     3.000000e-01     
3.000000e-01     3.500000e-01     3.000000e-01     3.000000e-01     3.000000e-01     
2.500000e-01     2.500000e-01     2.500000e-01     2.500000e-01     2.500000e-01     
2.500000e-01     2.500000e-01     2.500000e-01     2.000000e-01     2.000000e-01     
2.000000e-01     2.000000e-01     2.000000e-01     2.000000e-01     2.000000e-01     
2.000000e-01     2.000000e-01     1.500000e-01     1.500000e-01     1.500000e-01     
1.500000e-01     1.500000e-01     1.500000e-01     1.500000e-01     1.500000e-01     
1.500000e-01     5.000000e-01     4.500000e-01     5.000000e-01     4.500000e-01     
5.000000e-01     4.500000e-01     5.000000e-01     4.500000e-01     4.000000e-01     
4.000000e-01     4.000000e-01     4.000000e-01     3.500000e-01     3.500000e-01     
3.500000e-01     3.500000e-01     3.500000e-01     3.500000e-01     4.000000e-01     
3.000000e-01     3.000000e-01     3.000000e-01     3.000000e-01     3.000000e-01     
3.000000e-01     2.500000e-01     2.500000e-01     2.500000e-01     2.500000e-01     
2.500000e-01     2.000000e-01     2.000000e-01     2.000000e-01     2.000000e-01     
2.000000e-01     1.500000e-01     1.500000e-01     1.500000e-01     1.500000e-01     
1.500000e-01     5.000000e-01     4.500000e-01     5.000000e-01     4.500000e-01     
5.000000e-01     4.500000e-01     5.000000e-01     4.500000e-01     4.500000e-01     
5.000000e-01     4.000000e-01     4.000000e-01     4.000000e-01     4.000000e-01     
4.000000e-01     3.500000e-01     3.500000e-01     3.500000e-01     3.500000e-01     
3.500000e-01     3.500000e-01     3.000000e-01     3.000000e-01     3.000000e-01     
3.000000e-01     3.000000e-01     3.000000e-01     3.000000e-01     3.500000e-01     
2.500000e-01     2.500000e-01     2.500000e-01     2.500000e-01     2.500000e-01     
2.500000e-01     2.500000e-01     2.000000e-01     2.000000e-01     2.000000e-01     
2.000000e-01     2.000000e-01     2.000000e-01     2.000000e-01     1.500000e-01     
1.500000e-01     1.500000e-01     1.500000e-01     1.500000e-01     1.500000e-01     
1.500000e-01     5.000000e-01     4.500000e-01     5.000000e-01     4.500000e-01     
5.000000e-01     4.500000e-01     5.000000e-01     4.500000e-01     5.000000e-01     
4.500000e-01     4.000000e-01     4.000000e-01     4.000000e-01     4.000000e-01     
4.000000e-01     3.500000e-01     3.500000e-01     3.500000e-01     3.500000e-01     
3.500000e-01     3.500000e-01     4.000000e-01     3.000000e-01     3.000000e-01     
3.000000e-01     3.000000e-01     3.000000e-01     3.000000e-01     2.500000e-01     
2.500000e-01     2.500000e-01     2.500000e-01     2.500000e-01     2.500000e-01     
2.500000e-01     3.000000e-01     2.000000e-01     2.000000e-01     2.000000e-01     
2.000000e-01     2.000000e-01     2.000000e-01     2.000000e-01     1.500000e-01     
1.500000e-01     1.500000e-01     1.500000e-01     1.500000e-01     1.500000e-01     
1.500000e-01     5.000000e-01     4.500000e-01     5.000000e-01     4.500000e-01     
5.000000e-01     4.500000e-01     5.000000e-01     4.500000e-01     5.000000e-01     
4.500000e-01     4.000000e-01     4.000000e-01     4.000000e-01     4.000000e-01     
4.000000e-01     4.000000e-01     3.500000e-01     3.500000e-01     3.500000e-01     
3.500000e-01     3.500000e-01     3.500000e-01     3.000000e-01     3.000000e-01     
3.000000e-01     3.000000e-01     3.000000e-01     3.000000e-01     3.000000e-01     
2.500000e-01     2.500000e-01     2.500000e-01     2.500000e-01     2.500000e-01     
2.500000e-01     2.500000e-01     2.000000e-01     2.000000e-01     2.000000e-01     
2.000000e-01     2.000000e-01     2.000000e-01     1.500000e-01     1.500000e-01     
1.500000e-01     1.500000e-01     1.500000e-01     1.500000e-01     5.000000e-01     
4.500000e-01     5.000000e-01     4.500000e-01     5.000000e-01     4.500000e-01     
5.000000e-01     4.500000e-01     5.000000e-01     4.500000e-01     4.500000e-01     
5.000000e-01     4.000000e-01     4.000000e-01     4.000000e-01     4.000000e-01     
4.000000e-01     4.000000e-01     3.500000e-01     3.500000e-01     3.500000e-01     
3.500000e-01     3.500000e-01     3.500000e-01     3.000000e-01     3.000000e-01     
3.000000e-01     3.000000e-01     3.000000e-01     3.000000e-01     3.000000e-01     
2.500000e-01     2.500000e-01     2.500000e-01     2.500000e-01     2.500000e-01     
2.500000e-01     2.500000e-01     2.000000e-01     2.000000e-01     2.000000e-01     
2.000000e-01     2.000000e-01     2.000000e-01     1.500000e-01     1.500000e-01     
1.500000e-01     1.500000e-01     1.500000e-01     5.000000e-01     4.500000e-01     
5.000000e-01     4.500000e-01     5.000000e-01     4.500000e-01     5.000000e-01     
4.500000e-01     5.000000e-01     4.500000e-01     5.000000e-01     4.500000e-01     
4.000000e-01     4.000000e-01     4.000000e-01     4.000000e-01     4.000000e-01     
4.000000e-01     3.500000e-01     3.500000e-01     3.500000e-01     3.500000e-01     
3.500000e-01     3.500000e-01     3.000000e-01     3.000000e-01     3.000000e-01     
3.000000e-01     3.000000e-01     3.000000e-01     2.500000e-01     2.500000e-01     
2.500000e-01     2.500000e-01     2.500000e-01     2.500000e-01     2.000000e-01     
2.000000e-01     2.000000e-01     2.000000e-01     2.000000e-01     2.000000e-01     
1.500000e-01     1.500000e-01     1.500000e-01     1.500000e-01     1.500000e-01     
5.000000e-01     4.500000e-01     5.000000e-01     4.500000e-01     5.000000e-01     
4.500000e-01     5.000000e-01     4.500000e-01     5.000000e-01     4.500000e-01     
5.000000e-01     4.500000e-01     4.000000e-01     4.000000e-01     4.000000e-01     
4.000000e-01     4.000000e-01     4.000000e-01     3.500000e-01     3.500000e-01     
3.500000e-01     3.500000e-01     3.500000e-01     3.500000e-01     3.000000e-01     
3.000000e-01     3.000000e-01     3.000000e-01     3.000000e-01     3.000000e-01     
2.500000e-01     2.500000e-01     2.500000e-01     2.500000e-01     2.500000e-01     
2.500000e-01     2.000000e-01     2.000000e-01     2.000000e-01     2.000000e-01     
2.000000e-01     2.000000e-01     1.500000e-01     1.500000e-01     1.500000e-01     
1.500000e-01     1.500000e-01     5.000000e-01     4.500000e-01     5.000000e-01     
4.500000e-01     5.000000e-01     4.500000e-01     4.000000e-01     4.000000e-01     
4.000000e-01     4.000000e-01     3.500000e-01     3.500000e-01     3.500000e-01     
3.500000e-01     3.000000e-01     3.000000e-01     3.000000e-01     3.000000e-01     
3.000000e-01     2.500000e-01     2.500000e-01     2.500000e-01     2.500000e-01     
2.500000e-01     2.000000e-01     2.000000e-01     2.000000e-01     2.000000e-01     
5.000000e-01     4.500000e-01     5.000000e-01     4.500000e-01     5.000000e-01     
4.500000e-01     4.000000e-01     4.000000e-01     4.000000e-01     3.500000e-01     
3.500000e-01     3.500000e-01     5.000000e-01     4.500000e-01     5.000000e-01     
4.500000e-01     4.000000e-01     4.000000e-01     

0      
0      0      0      0      0      0      0      0      0      0      
0      0      0      0      0      0      0      0      0      0      
0      0      0      0      0      0      0      0      0      0      
0      0      0      0      0      0      0      0      0      0      
0      0      0      0      0      0      0      0      0      0      
0      0      0      0      0      0      0      0      0      0      
0      0      0      0      0      0      0      0      0      0      
0      0      0      0      0      0      0      0      0      0      
0      0      0      0      0      0      0      0      0      0      
0      0      0      0      0      0      0      0      0      0      
0      0      0      0      0      0      0      0      0      0      
0      0      0      0      0      0      0      0      0      0      
0      0      0      0      0      0      0      0      0      0      
0      0      0      0      0      0      0      0      0      0      
0      0      0      0      0      0      0      0      0      0      
0      0      0      0      0      0      0      0      0      0      
0      0      0      0      0      0      0      0      0      0      
0      0      0      0      0      0      0      0      0      0      
0      0      0      0      0      0      0      0      0      0      
0      0      0      0      0      0      0      0      0      0      
0      0      0      0      0      0      0      0      0      0      
0      0      0      0      0      0      0      0      0      0      
0      0      0      0      0      0      0      0      0      0      
0      0      0      0      0      0      0      0      0      0      
0      0      0      0      0      0      0      0      0      1      
1      1      1      1      1      1      1      1      1      1      
1      1      1      1      1      1      1      1      1      1      
1      1      1      1      1      1      1      1      1      1      
1      1      1      1      1      1      1      1      1      1      
1      1      1      1      1      1      1      1      1      1      
1      1      1      1      1      1      1      1      1      1      
1      1      1      1      1      1      1      1      1      1      
1      1      1      1      1      1      1      1      1      1      
1      1      1      1      1      1      1      1      1      1      
1      1      1      1      1      1      1      1      1      1      
1      1      1      1      1      1      1      1      1      1      
1      1      1      1      1      1      1      1      1      1      
1      1      1      1      1      1      1      1      1      1      
1      1      1      1      1      1      1      1      1      1      
1      1      1      1      1      1      1      1      1      1      
1      1      1      1      1      1      1      1      1      1      
1      1      1      1      1      1      1      1      1      1      
1      1      1      1      1      1      1      1      1      1      
1      1      1      1      1      1      1      1      1      1      
1      1      1      1      1      1      1      1      1      1      
1      1      1      1      1      1      1      1      1      1      
1      1      1      1      1      1      1      1      1      1      
1      1      1      1      1      1      1      1      1      1      
1      1      1      1      1      1      1      1      1      1      
1      1      1      1      1      1      1      1      1      1      
1      1      1      1      1      1      1      1      1      1      
1      1      1      1      1      1      1      1      1      1      
1      1      1      1      1      1      1      1      1      1      
1      1      1      1      1      1      1      1      1      1      
1      1      1      1      1      1      1      1      1      1      
1      1      1      1      1      1      1      1      1      1      
1      1      1      

7      8      9      10      11      12      13      14      
10      9      8      7      4      3      2      1      
8      2      3      9      18      15      16      19      
2      8      7      1      61      63      62      60      
12      8      9      13      20      18      19      21      
8      12      11      7      63      65      64      62      
15      18      8      2      67      68      63      61      
18      20      12      8      68      69      65      63      
35      45      46      37      38      47      48      39      
37      46      45      35      36      43      42      34      
45      42      43      46      54      52      53      55      
42      45      35      34      90      91      86      85      
47      45      46      48      56      54      55      57      
45      47      38      35      91      92      87      86      
43      53      52      42      44      50      49      41      
49      52      42      41      94      95      90      89      
52      54      45      42      95      96      91      90      
54      56      47      45      96      97      92      91      
1      2      61      60      6      5      59      58      
61      59      5      2      67      66      17      15      
59      61      60      58      99      101      100      98      
61      63      62      60      101      103      102      100      
63      65      64      62      103      105      104      102      
67      66      17      15      72      70      22      23      
66      67      61      59      108      109      101      99      
68      67      15      18      73      72      23      24      
67      68      63      61      109      110      103      101      
69      68      18      20      74      73      24      25      
68      69      65      63      110      111      105      103      
72      70      22      23      79      78      27      29      
70      72      67      66      113      115      109      108      
73      72      23      24      80      79      29      30      
72      73      68      67      115      116      110      109      
74      73      24      25      81      80      30      31      
73      74      69      68      116      117      111      110      
22      27      78      70      28      26      77      71      
78      77      26      27      84      83      32      33      
77      78      70      71      119      120      113      114      
79      78      27      29      85      84      33      34      
78      79      72      70      120      121      115      113      
80      79      29      30      86      85      34      35      
79      80      73      72      121      122      116      115      
81      80      30      31      87      86      35      38      
80      81      74      73      122      123      117      116      
84      83      32      33      89      88      40      41      
83      84      78      77      127      128      120      119      
85      84      33      34      90      89      41      42      
84      85      79      78      128      129      121      120      