title = " tecplot file for process Mesh " 
variables = "x",  "y", "z", "cell_type" 
zone N = 402 E = 510 DATAPACKING = BLOCK,  VARLOCATION = ([4]=CELLCENTERED), ZONETYPE=FEBRICK 
4.500000e-01     
4.500000e-01     5.000000e-01     5.000000e-01     4.500000e-01     5.000000e-01     
4.500000e-01     5.000000e-01     4.500000e-01     5.000000e-01     4.500000e-01     
5.000000e-01     4.500000e-01     5.000000e-01     4.500000e-01     5.000000e-01     
4.500000e-01     5.000000e-01     4.500000e-01     5.000000e-01     4.500000e-01     
5.000000e-01     4.500000e-01     5.000000e-01     4.500000e-01     5.000000e-01     
4.500000e-01     5.000000e-01     4.500000e-01     5.000000e-01     4.500000e-01     
5.000000e-01     4.500000e-01     5.000000e-01     4.500000e-01     5.000000e-01     
4.500000e-01     5.000000e-01     4.500000e-01     5.000000e-01     4.500000e-01     
5.000000e-01     4.500000e-01     5.000000e-01     4.500000e-01     5.000000e-01     
4.500000e-01     5.000000e-01     4.500000e-01     5.000000e-01     4.500000e-01     
5.000000e-01     4.500000e-01     5.000000e-01     4.500000e-01     5.000000e-01     
4.500000e-01     5.000000e-01     4.500000e-01     5.000000e-01     4.000000e-01     
4.000000e-01     4.000000e-01     4.000000e-01     4.000000e-01     4.000000e-01     
4.000000e-01     4.000000e-01     4.000000e-01     4.000000e-01     4.000000e-01     
4.000000e-01     4.000000e-01     4.000000e-01     4.000000e-01     4.000000e-01     
4.000000e-01     4.000000e-01     4.000000e-01     4.000000e-01     4.000000e-01     
4.000000e-01     4.000000e-01     4.000000e-01     4.000000e-01     4.000000e-01     
4.000000e-01     4.000000e-01     4.000000e-01     4.000000e-01     3.500000e-01     
3.500000e-01     3.500000e-01     3.500000e-01     3.500000e-01     3.500000e-01     
3.500000e-01     3.500000e-01     3.500000e-01     3.500000e-01     3.500000e-01     
3.500000e-01     3.500000e-01     3.500000e-01     3.500000e-01     3.500000e-01     
3.500000e-01     3.500000e-01     3.500000e-01     3.500000e-01     3.500000e-01     
3.500000e-01     3.500000e-01     3.500000e-01     3.500000e-01     3.500000e-01     
3.500000e-01     3.500000e-01     3.500000e-01     3.500000e-01     3.500000e-01     
3.500000e-01     3.500000e-01     3.500000e-01     3.500000e-01     3.500000e-01     
3.000000e-01     3.000000e-01     3.000000e-01     3.000000e-01     3.000000e-01     
3.000000e-01     3.000000e-01     3.000000e-01     3.000000e-01     3.000000e-01     
3.000000e-01     3.000000e-01     3.000000e-01     3.000000e-01     3.000000e-01     
3.000000e-01     3.000000e-01     3.000000e-01     3.000000e-01     3.000000e-01     
3.000000e-01     3.000000e-01     3.000000e-01     3.000000e-01     3.000000e-01     
3.000000e-01     3.000000e-01     3.000000e-01     3.000000e-01     3.000000e-01     
3.000000e-01     3.000000e-01     3.000000e-01     3.000000e-01     3.000000e-01     
3.000000e-01     2.500000e-01     2.500000e-01     2.500000e-01     2.500000e-01     
2.500000e-01     2.500000e-01     2.500000e-01     2.500000e-01     2.500000e-01     
2.500000e-01     2.500000e-01     2.500000e-01     2.500000e-01     2.500000e-01     
2.500000e-01     2.500000e-01     2.500000e-01     2.500000e-01     2.500000e-01     
2.500000e-01     2.500000e-01     2.500000e-01     2.500000e-01     2.500000e-01     
2.500000e-01     2.500000e-01     2.500000e-01     2.500000e-01     2.500000e-01     
2.500000e-01     2.500000e-01     2.500000e-01     2.500000e-01     2.500000e-01     
2.500000e-01     2.500000e-01     2.000000e-01     2.000000e-01     2.000000e-01     
2.000000e-01     2.000000e-01     2.000000e-01     2.000000e-01     2.000000e-01     
2.000000e-01     2.000000e-01     2.000000e-01     2.000000e-01     2.000000e-01     
2.000000e-01     2.000000e-01     2.000000e-01     2.000000e-01     2.000000e-01     
2.000000e-01     2.000000e-01     2.000000e-01     2.000000e-01     2.000000e-01     
2.000000e-01     2.000000e-01     2.000000e-01     2.000000e-01     2.000000e-01     
2.000000e-01     2.000000e-01     2.000000e-01     2.000000e-01     2.000000e-01     
2.000000e-01     2.000000e-01     2.000000e-01     1.500000e-01     1.500000e-01     
1.500000e-01     1.500000e-01     1.500000e-01     1.500000e-01     1.500000e-01     
1.500000e-01     1.500000e-01     1.500000e-01     1.500000e-01     1.500000e-01     
1.500000e-01     1.500000e-01     1.500000e-01     1.500000e-01     1.500000e-01     
1.500000e-01     1.500000e-01     1.500000e-01     1.500000e-01     1.500000e-01     
1.500000e-01     1.500000e-01     1.500000e-01     1.500000e-01     1.500000e-01     
1.500000e-01     1.500000e-01     1.500000e-01     1.500000e-01     1.500000e-01     
1.500000e-01     1.500000e-01     1.500000e-01     1.500000e-01     1.500000e-01     
1.500000e-01     1.500000e-01     1.500000e-01     1.500000e-01     1.500000e-01     
1.000000e-01     1.000000e-01     1.000000e-01     1.000000e-01     1.000000e-01     
1.000000e-01     1.000000e-01     1.000000e-01     1.000000e-01     1.000000e-01     
1.000000e-01     1.000000e-01     1.000000e-01     1.000000e-01     1.000000e-01     
1.000000e-01     1.000000e-01     1.000000e-01     1.000000e-01     1.000000e-01     
1.000000e-01     1.000000e-01     1.000000e-01     1.000000e-01     1.000000e-01     
1.000000e-01     1.000000e-01     1.000000e-01     1.000000e-01     1.000000e-01     
1.000000e-01     1.000000e-01     1.000000e-01     1.000000e-01     1.000000e-01     
1.000000e-01     1.000000e-01     1.000000e-01     1.000000e-01     1.000000e-01     
1.000000e-01     1.000000e-01     5.000000e-02     5.000000e-02     5.000000e-02     
5.000000e-02     5.000000e-02     5.000000e-02     5.000000e-02     5.000000e-02     
5.000000e-02     5.000000e-02     5.000000e-02     5.000000e-02     5.000000e-02     
5.000000e-02     5.000000e-02     5.000000e-02     5.000000e-02     5.000000e-02     
5.000000e-02     5.000000e-02     5.000000e-02     5.000000e-02     5.000000e-02     
5.000000e-02     5.000000e-02     5.000000e-02     5.000000e-02     5.000000e-02     
5.000000e-02     5.000000e-02     5.000000e-02     5.000000e-02     5.000000e-02     
5.000000e-02     5.000000e-02     5.000000e-02     5.000000e-02     5.000000e-02     
5.000000e-02     5.000000e-02     5.000000e-02     5.000000e-02     2.775558e-17     
2.775558e-17     0.000000e+00     2.775558e-17     2.775558e-17     2.775558e-17     
0.000000e+00     6.938894e-18     0.000000e+00     0.000000e+00     2.775558e-17     
0.000000e+00     0.000000e+00     1.387779e-17     0.000000e+00     0.000000e+00     
2.775558e-17     0.000000e+00     -2.775558e-17     -2.775558e-17     -2.775558e-17     
-2.775558e-17     0.000000e+00     0.000000e+00     0.000000e+00     0.000000e+00     
0.000000e+00     0.000000e+00     0.000000e+00     0.000000e+00     0.000000e+00     
1.387779e-17     0.000000e+00     0.000000e+00     2.775558e-17     0.000000e+00     
0.000000e+00     0.000000e+00     0.000000e+00     0.000000e+00     0.000000e+00     
0.000000e+00     
-4.500000e-01     
-5.000000e-01     -5.000000e-01     -4.500000e-01     -4.000000e-01     -4.000000e-01     
-3.500000e-01     -3.500000e-01     -3.000000e-01     -3.000000e-01     -2.500000e-01     
-2.500000e-01     -4.500000e-01     -4.500000e-01     -5.000000e-01     -5.000000e-01     
-4.000000e-01     -4.000000e-01     -3.500000e-01     -3.500000e-01     -3.000000e-01     
-3.000000e-01     -2.500000e-01     -2.500000e-01     -4.500000e-01     -4.500000e-01     
-5.000000e-01     -5.000000e-01     -4.000000e-01     -4.000000e-01     -3.500000e-01     
-3.500000e-01     -3.000000e-01     -3.000000e-01     -2.500000e-01     -2.500000e-01     
-4.500000e-01     -4.500000e-01     -5.000000e-01     -5.000000e-01     -4.000000e-01     
-4.000000e-01     -3.500000e-01     -3.500000e-01     -3.000000e-01     -3.000000e-01     
-2.500000e-01     -2.500000e-01     -4.500000e-01     -4.500000e-01     -5.000000e-01     
-5.000000e-01     -4.000000e-01     -4.000000e-01     -3.500000e-01     -3.500000e-01     
-3.000000e-01     -3.000000e-01     -2.500000e-01     -2.500000e-01     -4.500000e-01     
-5.000000e-01     -4.000000e-01     -3.500000e-01     -3.000000e-01     -2.500000e-01     
-4.500000e-01     -5.000000e-01     -4.000000e-01     -3.500000e-01     -3.000000e-01     
-2.500000e-01     -4.500000e-01     -5.000000e-01     -4.000000e-01     -3.500000e-01     
-3.000000e-01     -2.500000e-01     -4.500000e-01     -5.000000e-01     -4.000000e-01     
-3.500000e-01     -3.000000e-01     -2.500000e-01     -4.500000e-01     -5.000000e-01     
-4.000000e-01     -3.500000e-01     -3.000000e-01     -2.500000e-01     -4.500000e-01     
-5.000000e-01     -4.500000e-01     -5.000000e-01     -4.000000e-01     -4.000000e-01     
-3.500000e-01     -3.500000e-01     -3.000000e-01     -3.000000e-01     -2.500000e-01     
-2.500000e-01     -4.500000e-01     -5.000000e-01     -4.000000e-01     -3.500000e-01     
-3.000000e-01     -2.500000e-01     -4.500000e-01     -5.000000e-01     -4.000000e-01     
-3.500000e-01     -3.000000e-01     -2.500000e-01     -4.500000e-01     -5.000000e-01     
-4.000000e-01     -3.500000e-01     -3.000000e-01     -2.500000e-01     -4.500000e-01     
-5.000000e-01     -4.000000e-01     -3.500000e-01     -3.000000e-01     -2.500000e-01     
-4.500000e-01     -5.000000e-01     -4.000000e-01     -3.500000e-01     -3.000000e-01     
-2.500000e-01     -4.500000e-01     -5.000000e-01     -4.000000e-01     -3.500000e-01     
-3.000000e-01     -2.500000e-01     -4.500000e-01     -5.000000e-01     -4.000000e-01     
-3.500000e-01     -3.000000e-01     -2.500000e-01     -4.500000e-01     -5.000000e-01     
-4.000000e-01     -3.500000e-01     -3.000000e-01     -2.500000e-01     -4.500000e-01     
-5.000000e-01     -4.000000e-01     -3.500000e-01     -3.000000e-01     -2.500000e-01     
-4.500000e-01     -5.000000e-01     -4.000000e-01     -3.500000e-01     -3.000000e-01     
-2.500000e-01     -4.500000e-01     -5.000000e-01     -4.000000e-01     -3.500000e-01     
-3.000000e-01     -2.500000e-01     -4.500000e-01     -5.000000e-01     -4.000000e-01     
-3.500000e-01     -3.000000e-01     -2.500000e-01     -4.500000e-01     -5.000000e-01     
-4.000000e-01     -3.500000e-01     -3.000000e-01     -2.500000e-01     -4.500000e-01     
-5.000000e-01     -4.000000e-01     -3.500000e-01     -3.000000e-01     -2.500000e-01     
-4.500000e-01     -5.000000e-01     -4.000000e-01     -3.500000e-01     -3.000000e-01     
-2.500000e-01     -4.500000e-01     -5.000000e-01     -4.000000e-01     -3.500000e-01     
-3.000000e-01     -2.500000e-01     -4.500000e-01     -5.000000e-01     -4.000000e-01     
-3.500000e-01     -3.000000e-01     -2.500000e-01     -4.500000e-01     -5.000000e-01     
-4.000000e-01     -3.500000e-01     -3.000000e-01     -2.500000e-01     -4.500000e-01     
-5.000000e-01     -4.000000e-01     -3.500000e-01     -3.000000e-01     -2.500000e-01     
-4.500000e-01     -5.000000e-01     -4.000000e-01     -3.500000e-01     -3.000000e-01     
-2.500000e-01     -4.500000e-01     -5.000000e-01     -4.000000e-01     -3.500000e-01     
-3.000000e-01     -2.500000e-01     -4.500000e-01     -5.000000e-01     -4.000000e-01     
-3.500000e-01     -3.000000e-01     -2.500000e-01     -4.500000e-01     -5.000000e-01     
-4.500000e-01     -5.000000e-01     -4.000000e-01     -4.000000e-01     -3.500000e-01     
-3.500000e-01     -3.000000e-01     -3.000000e-01     -2.500000e-01     -2.500000e-01     
-4.500000e-01     -5.000000e-01     -4.000000e-01     -3.500000e-01     -3.000000e-01     
-2.500000e-01     -4.500000e-01     -5.000000e-01     -4.000000e-01     -3.500000e-01     
-3.000000e-01     -2.500000e-01     -4.500000e-01     -5.000000e-01     -4.000000e-01     
-3.500000e-01     -3.000000e-01     -2.500000e-01     -4.500000e-01     -5.000000e-01     
-4.000000e-01     -3.500000e-01     -3.000000e-01     -2.500000e-01     -4.500000e-01     
-5.000000e-01     -4.000000e-01     -3.500000e-01     -3.000000e-01     -2.500000e-01     
-4.500000e-01     -5.000000e-01     -4.000000e-01     -3.500000e-01     -3.000000e-01     
-2.500000e-01     -4.500000e-01     -5.000000e-01     -4.000000e-01     -3.500000e-01     
-3.000000e-01     -2.500000e-01     -4.500000e-01     -5.000000e-01     -4.000000e-01     
-3.500000e-01     -3.000000e-01     -2.500000e-01     -4.500000e-01     -5.000000e-01     
-4.000000e-01     -3.500000e-01     -3.000000e-01     -2.500000e-01     -4.500000e-01     
-5.000000e-01     -4.000000e-01     -3.500000e-01     -3.000000e-01     -2.500000e-01     
-4.500000e-01     -5.000000e-01     -4.000000e-01     -3.500000e-01     -3.000000e-01     
-2.500000e-01     -4.500000e-01     -5.000000e-01     -4.000000e-01     -3.500000e-01     
-3.000000e-01     -2.500000e-01     -4.500000e-01     -5.000000e-01     -4.000000e-01     
-3.500000e-01     -3.000000e-01     -2.500000e-01     -4.500000e-01     -5.000000e-01     
-4.000000e-01     -3.500000e-01     -3.000000e-01     -2.500000e-01     -4.500000e-01     
-5.000000e-01     -4.000000e-01     -3.500000e-01     -3.000000e-01     -2.500000e-01     
-4.500000e-01     -5.000000e-01     -4.000000e-01     -3.500000e-01     -3.000000e-01     
-2.500000e-01     -4.500000e-01     -5.000000e-01     -4.000000e-01     -3.500000e-01     
-3.000000e-01     -2.500000e-01     -4.500000e-01     -5.000000e-01     -4.000000e-01     
-3.500000e-01     -3.000000e-01     -2.500000e-01     -4.500000e-01     -5.000000e-01     
-4.000000e-01     -3.500000e-01     -3.000000e-01     -2.500000e-01     -4.500000e-01     
-5.000000e-01     -4.000000e-01     -3.500000e-01     -3.000000e-01     -2.500000e-01     
-4.500000e-01     -5.000000e-01     -4.000000e-01     -3.500000e-01     -3.000000e-01     
-2.500000e-01     -4.500000e-01     -5.000000e-01     -4.000000e-01     -3.500000e-01     
-3.000000e-01     -2.500000e-01     -4.500000e-01     -5.000000e-01     -4.000000e-01     
-3.500000e-01     -3.000000e-01     -2.500000e-01     -4.500000e-01     -5.000000e-01     
-4.000000e-01     -3.500000e-01     -3.000000e-01     -2.500000e-01     -4.500000e-01     
-5.000000e-01     -4.000000e-01     -3.500000e-01     -3.000000e-01     -2.500000e-01     
-4.500000e-01     -5.000000e-01     -4.000000e-01     -3.500000e-01     -3.000000e-01     
-2.500000e-01     
2.000000e-01     
2.000000e-01     2.000000e-01     2.000000e-01     2.000000e-01     2.000000e-01     
2.000000e-01     2.000000e-01     2.000000e-01     2.000000e-01     2.000000e-01     
2.000000e-01     1.500000e-01     1.500000e-01     1.500000e-01     1.500000e-01     
1.500000e-01     1.500000e-01     1.500000e-01     1.500000e-01     1.500000e-01     
1.500000e-01     1.500000e-01     1.500000e-01     1.000000e-01     1.000000e-01     
1.000000e-01     1.000000e-01     1.000000e-01     1.000000e-01     1.000000e-01     
1.000000e-01     1.000000e-01     1.000000e-01     1.000000e-01     1.000000e-01     
5.000000e-02     5.000000e-02     5.000000e-02     5.000000e-02     5.000000e-02     
5.000000e-02     5.000000e-02     5.000000e-02     5.000000e-02     5.000000e-02     
5.000000e-02     5.000000e-02     0.000000e+00     0.000000e+00     0.000000e+00     
0.000000e+00     0.000000e+00     0.000000e+00     0.000000e+00     0.000000e+00     
0.000000e+00     0.000000e+00     0.000000e+00     0.000000e+00     2.000000e-01     
2.000000e-01     2.000000e-01     2.000000e-01     2.000000e-01     2.000000e-01     
1.500000e-01     1.500000e-01     1.500000e-01     1.500000e-01     1.500000e-01     
1.500000e-01     1.000000e-01     1.000000e-01     1.000000e-01     1.000000e-01     
1.000000e-01     1.000000e-01     5.000000e-02     5.000000e-02     5.000000e-02     
5.000000e-02     5.000000e-02     5.000000e-02     0.000000e+00     0.000000e+00     
0.000000e+00     0.000000e+00     0.000000e+00     0.000000e+00     2.000000e-01     
2.000000e-01     2.500000e-01     2.500000e-01     2.000000e-01     2.500000e-01     
2.000000e-01     2.500000e-01     2.000000e-01     2.500000e-01     2.000000e-01     
2.500000e-01     1.500000e-01     1.500000e-01     1.500000e-01     1.500000e-01     
1.500000e-01     1.500000e-01     1.000000e-01     1.000000e-01     1.000000e-01     
1.000000e-01     1.000000e-01     1.000000e-01     5.000000e-02     5.000000e-02     
5.000000e-02     5.000000e-02     5.000000e-02     5.000000e-02     0.000000e+00     
0.000000e+00     0.000000e+00     0.000000e+00     0.000000e+00     0.000000e+00     
2.500000e-01     2.500000e-01     2.500000e-01     2.500000e-01     2.500000e-01     
2.500000e-01     2.000000e-01     2.000000e-01     2.000000e-01     2.000000e-01     
2.000000e-01     2.000000e-01     1.500000e-01     1.500000e-01     1.500000e-01     
1.500000e-01     1.500000e-01     1.500000e-01     1.000000e-01     1.000000e-01     
1.000000e-01     1.000000e-01     1.000000e-01     1.000000e-01     5.000000e-02     
5.000000e-02     5.000000e-02     5.000000e-02     5.000000e-02     5.000000e-02     
0.000000e+00     0.000000e+00     0.000000e+00     0.000000e+00     0.000000e+00     
0.000000e+00     2.500000e-01     2.500000e-01     2.500000e-01     2.500000e-01     
2.500000e-01     2.500000e-01     2.000000e-01     2.000000e-01     2.000000e-01     
2.000000e-01     2.000000e-01     2.000000e-01     1.500000e-01     1.500000e-01     
1.500000e-01     1.500000e-01     1.500000e-01     1.500000e-01     1.000000e-01     
1.000000e-01     1.000000e-01     1.000000e-01     1.000000e-01     1.000000e-01     
5.000000e-02     5.000000e-02     5.000000e-02     5.000000e-02     5.000000e-02     
5.000000e-02     0.000000e+00     0.000000e+00     0.000000e+00     0.000000e+00     
-2.465190e-32     0.000000e+00     2.500000e-01     2.500000e-01     2.500000e-01     
2.500000e-01     2.500000e-01     2.500000e-01     2.000000e-01     2.000000e-01     
2.000000e-01     2.000000e-01     2.000000e-01     2.000000e-01     1.500000e-01     
1.500000e-01     1.500000e-01     1.500000e-01     1.500000e-01     1.500000e-01     
1.000000e-01     1.000000e-01     1.000000e-01     1.000000e-01     1.000000e-01     
1.000000e-01     5.000000e-02     5.000000e-02     5.000000e-02     5.000000e-02     
5.000000e-02     5.000000e-02     0.000000e+00     0.000000e+00     0.000000e+00     
0.000000e+00     0.000000e+00     0.000000e+00     2.500000e-01     2.500000e-01     
3.000000e-01     3.000000e-01     2.500000e-01     3.000000e-01     2.500000e-01     
3.000000e-01     2.500000e-01     3.000000e-01     2.500000e-01     3.000000e-01     
2.000000e-01     2.000000e-01     2.000000e-01     2.000000e-01     2.000000e-01     
2.000000e-01     1.500000e-01     1.500000e-01     1.500000e-01     1.500000e-01     
1.500000e-01     1.500000e-01     1.000000e-01     1.000000e-01     1.000000e-01     
1.000000e-01     1.000000e-01     1.000000e-01     5.000000e-02     5.000000e-02     
5.000000e-02     5.000000e-02     5.000000e-02     5.000000e-02     0.000000e+00     
0.000000e+00     0.000000e+00     0.000000e+00     0.000000e+00     0.000000e+00     
3.000000e-01     3.000000e-01     3.000000e-01     3.000000e-01     3.000000e-01     
3.000000e-01     2.500000e-01     2.500000e-01     2.500000e-01     2.500000e-01     
2.500000e-01     2.500000e-01     2.000000e-01     2.000000e-01     2.000000e-01     
2.000000e-01     2.000000e-01     2.000000e-01     1.500000e-01     1.500000e-01     
1.500000e-01     1.500000e-01     1.500000e-01     1.500000e-01     1.000000e-01     
1.000000e-01     1.000000e-01     1.000000e-01     1.000000e-01     1.000000e-01     
5.000000e-02     5.000000e-02     5.000000e-02     5.000000e-02     5.000000e-02     
5.000000e-02     0.000000e+00     0.000000e+00     0.000000e+00     0.000000e+00     
0.000000e+00     0.000000e+00     3.000000e-01     3.000000e-01     3.000000e-01     
3.000000e-01     3.000000e-01     3.000000e-01     2.500000e-01     2.500000e-01     
2.500000e-01     2.500000e-01     2.500000e-01     2.500000e-01     2.000000e-01     
2.000000e-01     2.000000e-01     2.000000e-01     2.000000e-01     2.000000e-01     
1.500000e-01     1.500000e-01     1.500000e-01     1.500000e-01     1.500000e-01     
1.500000e-01     1.000000e-01     1.000000e-01     1.000000e-01     1.000000e-01     
1.000000e-01     1.000000e-01     5.000000e-02     5.000000e-02     5.000000e-02     
5.000000e-02     5.000000e-02     5.000000e-02     0.000000e+00     0.000000e+00     
0.000000e+00     0.000000e+00     0.000000e+00     0.000000e+00     3.000000e-01     
3.000000e-01     3.000000e-01     3.000000e-01     3.000000e-01     3.000000e-01     
2.500000e-01     2.500000e-01     2.500000e-01     2.500000e-01     2.500000e-01     
2.500000e-01     2.000000e-01     2.000000e-01     2.000000e-01     2.000000e-01     
2.000000e-01     2.000000e-01     1.500000e-01     1.500000e-01     1.500000e-01     
1.500000e-01     1.500000e-01     1.500000e-01     1.000000e-01     1.000000e-01     
1.000000e-01     1.000000e-01     1.000000e-01     1.000000e-01     5.000000e-02     
5.000000e-02     5.000000e-02     5.000000e-02     5.000000e-02     5.000000e-02     
0.000000e+00     0.000000e+00     0.000000e+00     0.000000e+00     0.000000e+00     
0.000000e+00     

0      
0      0      0      0      0      0      0      0      0      0      
0      0      0      0      0      0      0      0      0      0      
0      0      0      0      0      0      0      0      0      0      
0      0      0      0      0      0      0      0      0      0      
0      0      0      0      0      0      0      0      0      0      
0      0      0      0      0      0      0      0      0      0      
0      0      0      0      0      0      0      0      0      0      
0      0      0      0      0      0      0      0      0      0      
0      0      0      0      0      0      0      0      0      0      
0      0      0      0      0      0      0      0      0      0      
0      0      0      0      0      0      0      0      0      0      
0      0      0      0      0      0      0      0      0      0      
0      0      0      0      0      0      0      0      0      0      
0      0      0      0      0      0      0      0      0      0      
0      0      0      0      0      0      0      0      0      0      
0      0      0      0      0      0      0      0      0      0      
0      0      0      0      0      0      0      0      0      0      
0      0      0      0      0      0      0      0      0      0      
0      0      0      0      0      0      0      0      0      0      
0      0      0      0      0      0      0      0      0      0      
0      0      0      0      0      0      0      0      0      0      
0      0      0      0      0      0      0      0      0      0      
0      0      0      0      0      0      0      0      0      0      
0      0      0      0      0      0      0      0      0      0      
0      0      0      0      0      0      0      0      0      1      
1      1      1      1      1      1      1      1      1      1      
1      1      1      1      1      1      1      1      1      1      
1      1      1      1      1      1      1      1      1      1      
1      1      1      1      1      1      1      1      1      1      
1      1      1      1      1      1      1      1      1      1      
1      1      1      1      1      1      1      1      1      1      
1      1      1      1      1      1      1      1      1      1      
1      1      1      1      1      1      1      1      1      1      
1      1      1      1      1      1      1      1      1      1      
1      1      1      1      1      1      1      1      1      1      
1      1      1      1      1      1      1      1      1      1      
1      1      1      1      1      1      1      1      1      1      
1      1      1      1      1      1      1      1      1      1      
1      1      1      1      1      1      1      1      1      1      
1      1      1      1      1      1      1      1      1      1      
1      1      1      1      1      1      1      1      1      1      
1      1      1      1      1      1      1      1      1      1      
1      1      1      1      1      1      1      1      1      1      
1      1      1      1      1      1      1      1      1      1      
1      1      1      1      1      1      1      1      1      1      
1      1      1      1      1      1      1      1      1      1      
1      1      1      1      1      1      1      1      1      1      
1      1      1      1      1      1      1      1      1      1      
1      1      1      1      1      1      1      1      1      1      
1      1      1      1      1      1      1      1      1      1      
1      1      1      1      1      1      1      1      1      

1      13      14      4      5      17      18      6      
4      14      13      1      3      16      15      2      
13      15      16      14      25      27      28      26      
15      13      1      2      68      67      61      62      
5      17      18      6      7      19      20      8      
17      13      14      18      29      25      26      30      
13      17      5      1      67      69      63      61      
7      19      20      8      9      21      22      10      
19      17      18      20      31      29      30      32      
17      19      7      5      69      70      64      63      
9      21      22      10      11      23      24      12      
21      19      20      22      33      31      32      34      
19      21      9      7      70      71      65      64      
23      21      22      24      35      33      34      36      
21      23      11      9      71      72      66      65      
25      27      28      26      37      39      40      38      
27      25      13      15      74      73      67      68      
29      25      26      30      41      37      38      42      
25      29      17      13      73      75      69      67      
31      29      30      32      43      41      42      44      
29      31      19      17      75      76      70      69      
33      31      32      34      45      43      44      46      
31      33      21      19      76      77      71      70      
35      33      34      36      47      45      46      48      
33      35      23      21      77      78      72      71      
37      39      40      38      49      51      52      50      
39      37      25      27      80      79      73      74      
41      37      38      42      53      49      50      54      
37      41      29      25      79      81      75      73      
43      41      42      44      55      53      54      56      
41      43      31      29      81      82      76      75      
45      43      44      46      57      55      56      58      
43      45      33      31      82      83      77      76      
47      45      46      48      59      57      58      60      
45      47      35      33      83      84      78      77      
51      49      37      39      86      85      79      80      
49      53      41      37      85      87      81      79      
53      55      43      41      87      88      82      81      
55      57      45      43      88      89      83      82      
57      59      47      45      89      90      84      83      
68      67      61      62      104      103      91      92      
67      69      63      61      103      105      95      91      
69      70      64      63      105      106      97      95      
70      71      65      64      106      107      99      97      
71      72      66      65      107      108      101      99      
74      73      67      68      110      109      103      104      
73      75      69      67      109      111      105      103      
75      76      70      69      111      112      106      105      
76      77      71      70      112      113      107      106      
77      78      72      71      113      114      108      107      
80      79      73      74      116      115      109      110      
79      81      75      73      115      117      111      109      
81      82      76      75      117      118      112      111      
82      83      77      76      118      119      113      112      
83      84      78      77      119      120      114      113      
86      85      79      80      122      121      115      116      
85      87      81      79      121      123      117      115      
87      88      82      81      123      124      118      117      
88      89      83      82      124      125      119      118      
89      90      84      83      125      126      120      119      
104      103      91      92      140      139      133      134      
103      105      95      91      139      141      135      133      
105      106      97      95      141      142      136      135      
106      107      99      97      142      143      137      136      
107      108      101      99      143      144      138      137      
110      109      103      104      146      145      139      140      
109      111      105      103      145      147      141      139      
111      112      106      105      147      148      142      141      
112      113      107      106      148      149      143      142      
113      114      108      107      149      150      144      143      
116      115      109      110      152      151      145      146      
115      117      111      109      151      153      147      145      
117      118      112      111      153      154      148      147      
118      119      113      112      154      155      149      148      
119      120      114      113      155      156      150      149      