title = " tecplot file for process Mesh " 
variables = "x",  "y", "z", "cell_type" 
zone N = 441 E = 575 DATAPACKING = BLOCK,  VARLOCATION = ([4]=CELLCENTERED), ZONETYPE=FEBRICK 
-1.500000e-01     
-1.500000e-01     -1.500000e-01     -1.500000e-01     -1.500000e-01     -1.500000e-01     
-1.500000e-01     -1.500000e-01     -1.500000e-01     -1.500000e-01     -1.500000e-01     
-1.500000e-01     -1.500000e-01     -1.500000e-01     -1.500000e-01     -1.500000e-01     
-1.500000e-01     -1.500000e-01     -1.500000e-01     -1.500000e-01     -1.500000e-01     
-1.500000e-01     -1.500000e-01     -1.500000e-01     -1.500000e-01     -2.000000e-01     
-2.000000e-01     -2.000000e-01     -2.000000e-01     -2.000000e-01     -2.000000e-01     
-2.000000e-01     -2.000000e-01     -2.000000e-01     -2.000000e-01     -2.000000e-01     
-2.000000e-01     -2.000000e-01     -2.000000e-01     -2.000000e-01     -2.000000e-01     
-2.000000e-01     -2.000000e-01     -2.000000e-01     -2.000000e-01     -2.000000e-01     
-2.000000e-01     -2.000000e-01     -2.000000e-01     -2.000000e-01     -2.000000e-01     
-2.000000e-01     -2.000000e-01     -2.000000e-01     -2.000000e-01     -2.000000e-01     
-2.500000e-01     -2.500000e-01     -2.500000e-01     -2.500000e-01     -2.500000e-01     
-2.500000e-01     -2.500000e-01     -2.500000e-01     -2.500000e-01     -2.500000e-01     
-2.500000e-01     -2.500000e-01     -2.500000e-01     -2.500000e-01     -2.500000e-01     
-2.500000e-01     -2.500000e-01     -2.500000e-01     -2.500000e-01     -2.500000e-01     
-2.500000e-01     -2.500000e-01     -2.500000e-01     -2.500000e-01     -2.500000e-01     
-2.500000e-01     -2.500000e-01     -2.500000e-01     -2.500000e-01     -2.500000e-01     
-2.500000e-01     -3.000000e-01     -3.000000e-01     -3.000000e-01     -3.000000e-01     
-3.000000e-01     -3.000000e-01     -3.000000e-01     -3.000000e-01     -3.000000e-01     
-3.000000e-01     -3.000000e-01     -3.000000e-01     -3.000000e-01     -3.000000e-01     
-3.000000e-01     -3.000000e-01     -3.000000e-01     -3.000000e-01     -3.000000e-01     
-3.000000e-01     -3.000000e-01     -3.000000e-01     -3.000000e-01     -3.000000e-01     
-3.000000e-01     -3.000000e-01     -3.000000e-01     -3.000000e-01     -3.000000e-01     
-3.000000e-01     -3.000000e-01     -3.000000e-01     -3.000000e-01     -3.000000e-01     
-3.000000e-01     -3.000000e-01     -3.000000e-01     -3.000000e-01     -3.000000e-01     
-3.000000e-01     -3.000000e-01     -3.000000e-01     -3.000000e-01     -3.000000e-01     
-3.000000e-01     -3.000000e-01     -3.000000e-01     -3.000000e-01     -3.000000e-01     
-3.500000e-01     -3.500000e-01     -3.500000e-01     -3.500000e-01     -3.500000e-01     
-3.500000e-01     -3.500000e-01     -3.500000e-01     -3.500000e-01     -3.500000e-01     
-3.500000e-01     -3.500000e-01     -3.500000e-01     -3.500000e-01     -3.500000e-01     
-3.500000e-01     -3.500000e-01     -3.500000e-01     -3.500000e-01     -3.500000e-01     
-3.500000e-01     -3.500000e-01     -3.500000e-01     -3.500000e-01     -3.500000e-01     
-3.500000e-01     -3.500000e-01     -3.500000e-01     -3.500000e-01     -3.500000e-01     
-3.500000e-01     -3.500000e-01     -3.500000e-01     -3.500000e-01     -3.500000e-01     
-3.500000e-01     -3.500000e-01     -3.500000e-01     -3.500000e-01     -3.500000e-01     
-3.500000e-01     -3.500000e-01     -3.500000e-01     -3.500000e-01     -3.500000e-01     
-3.500000e-01     -3.500000e-01     -3.500000e-01     -3.500000e-01     -3.500000e-01     
-3.500000e-01     -3.500000e-01     -3.500000e-01     -3.500000e-01     -3.500000e-01     
-3.500000e-01     -3.500000e-01     -3.500000e-01     -3.500000e-01     -3.500000e-01     
-3.500000e-01     -3.500000e-01     -3.500000e-01     -3.500000e-01     -3.500000e-01     
-4.000000e-01     -4.000000e-01     -4.000000e-01     -4.000000e-01     -4.000000e-01     
-4.000000e-01     -4.000000e-01     -4.000000e-01     -4.000000e-01     -4.000000e-01     
-4.000000e-01     -4.000000e-01     -4.000000e-01     -4.000000e-01     -4.000000e-01     
-4.000000e-01     -4.000000e-01     -4.000000e-01     -4.000000e-01     -4.000000e-01     
-4.000000e-01     -4.000000e-01     -4.000000e-01     -4.000000e-01     -4.000000e-01     
-4.000000e-01     -4.000000e-01     -4.000000e-01     -4.000000e-01     -4.000000e-01     
-4.000000e-01     -4.000000e-01     -4.000000e-01     -4.000000e-01     -4.000000e-01     
-4.000000e-01     -4.000000e-01     -4.000000e-01     -4.000000e-01     -4.000000e-01     
-4.000000e-01     -4.000000e-01     -4.000000e-01     -4.000000e-01     -4.000000e-01     
-4.000000e-01     -4.000000e-01     -4.000000e-01     -4.000000e-01     -4.000000e-01     
-4.000000e-01     -4.000000e-01     -4.000000e-01     -4.000000e-01     -4.000000e-01     
-4.000000e-01     -4.000000e-01     -4.000000e-01     -4.000000e-01     -4.000000e-01     
-4.000000e-01     -4.000000e-01     -4.000000e-01     -4.000000e-01     -4.000000e-01     
-4.000000e-01     -4.000000e-01     -4.000000e-01     -4.000000e-01     -4.000000e-01     
-4.000000e-01     -4.000000e-01     -4.000000e-01     -4.000000e-01     -4.000000e-01     
-4.000000e-01     -4.000000e-01     -4.000000e-01     -4.000000e-01     -4.000000e-01     
-4.500000e-01     -4.500000e-01     -4.500000e-01     -4.500000e-01     -4.500000e-01     
-4.500000e-01     -4.500000e-01     -4.500000e-01     -4.500000e-01     -4.500000e-01     
-4.500000e-01     -4.500000e-01     -4.500000e-01     -4.500000e-01     -4.500000e-01     
-4.500000e-01     -4.500000e-01     -4.500000e-01     -4.500000e-01     -4.500000e-01     
-4.500000e-01     -4.500000e-01     -4.500000e-01     -4.500000e-01     -4.500000e-01     
-4.500000e-01     -4.500000e-01     -4.500000e-01     -4.500000e-01     -4.500000e-01     
-4.500000e-01     -4.500000e-01     -4.500000e-01     -4.500000e-01     -4.500000e-01     
-4.500000e-01     -4.500000e-01     -4.500000e-01     -4.500000e-01     -4.500000e-01     
-4.500000e-01     -4.500000e-01     -4.500000e-01     -4.500000e-01     -4.500000e-01     
-4.500000e-01     -4.500000e-01     -4.500000e-01     -4.500000e-01     -4.500000e-01     
-4.500000e-01     -4.500000e-01     -4.500000e-01     -4.500000e-01     -4.500000e-01     
-4.500000e-01     -4.500000e-01     -4.500000e-01     -4.500000e-01     -4.500000e-01     
-4.500000e-01     -4.500000e-01     -4.500000e-01     -4.500000e-01     -4.500000e-01     
-4.500000e-01     -4.500000e-01     -4.500000e-01     -4.500000e-01     -4.500000e-01     
-4.500000e-01     -4.500000e-01     -4.500000e-01     -4.500000e-01     -4.500000e-01     
-4.500000e-01     -4.500000e-01     -4.500000e-01     -4.500000e-01     -4.500000e-01     
-5.000000e-01     -5.000000e-01     -5.000000e-01     -5.000000e-01     -5.000000e-01     
-5.000000e-01     -5.000000e-01     -5.000000e-01     -5.000000e-01     -5.000000e-01     
-5.000000e-01     -5.000000e-01     -5.000000e-01     -5.000000e-01     -5.000000e-01     
-5.000000e-01     -5.000000e-01     -5.000000e-01     -5.000000e-01     -5.000000e-01     
-5.000000e-01     -5.000000e-01     -5.000000e-01     -5.000000e-01     -5.000000e-01     
-5.000000e-01     -5.000000e-01     -5.000000e-01     -5.000000e-01     -5.000000e-01     
-5.000000e-01     -5.000000e-01     -5.000000e-01     -5.000000e-01     -5.000000e-01     
-5.000000e-01     -5.000000e-01     -5.000000e-01     -5.000000e-01     -5.000000e-01     
-5.000000e-01     -5.000000e-01     -5.000000e-01     -5.000000e-01     -5.000000e-01     
-5.000000e-01     -5.000000e-01     -5.000000e-01     -5.000000e-01     -5.000000e-01     
-5.000000e-01     -5.000000e-01     -5.000000e-01     -5.000000e-01     -5.000000e-01     
-5.000000e-01     -5.000000e-01     -5.000000e-01     -5.000000e-01     -5.000000e-01     
-5.000000e-01     -5.000000e-01     -5.000000e-01     -5.000000e-01     -5.000000e-01     
-5.000000e-01     -5.000000e-01     -5.000000e-01     -5.000000e-01     -5.000000e-01     
-5.000000e-01     -5.000000e-01     -5.000000e-01     -5.000000e-01     -5.000000e-01     
-5.000000e-01     -5.000000e-01     -5.000000e-01     -5.000000e-01     -5.000000e-01     

-1.500000e-01     
-1.000000e-01     -1.000000e-01     -1.500000e-01     -5.000000e-02     -5.000000e-02     
-1.500000e-01     -1.000000e-01     -5.000000e-02     -1.500000e-01     -1.000000e-01     
-5.000000e-02     0.000000e+00     0.000000e+00     -1.500000e-01     -1.000000e-01     
-5.000000e-02     -2.775558e-17     5.000000e-02     5.000000e-02     -1.500000e-01     
-1.000000e-01     -5.000000e-02     -2.775558e-17     5.000000e-02     -1.000000e-01     
-1.500000e-01     -1.000000e-01     -1.500000e-01     -5.000000e-02     -5.000000e-02     
-1.500000e-01     -1.000000e-01     -5.000000e-02     0.000000e+00     0.000000e+00     
-1.500000e-01     -1.000000e-01     -5.000000e-02     0.000000e+00     -1.500000e-01     
-1.000000e-01     -5.000000e-02     0.000000e+00     5.000000e-02     5.000000e-02     
-1.500000e-01     -1.000000e-01     -5.000000e-02     0.000000e+00     5.000000e-02     
-1.500000e-01     -1.000000e-01     -5.000000e-02     0.000000e+00     5.000000e-02     
-1.000000e-01     -1.500000e-01     -5.000000e-02     -1.500000e-01     -1.000000e-01     
-5.000000e-02     0.000000e+00     -1.500000e-01     -1.000000e-01     -5.000000e-02     
0.000000e+00     -1.500000e-01     -1.000000e-01     -5.000000e-02     0.000000e+00     
5.000000e-02     -1.500000e-01     -1.000000e-01     -5.000000e-02     0.000000e+00     
5.000000e-02     -1.500000e-01     -1.000000e-01     -5.000000e-02     0.000000e+00     
5.000000e-02     -1.500000e-01     -1.000000e-01     -5.000000e-02     0.000000e+00     
5.000000e-02     -1.000000e-01     -5.000000e-02     -5.000000e-02     -1.000000e-01     
0.000000e+00     0.000000e+00     -1.000000e-01     -5.000000e-02     0.000000e+00     
-2.000000e-01     -1.500000e-01     -1.500000e-01     -2.000000e-01     -1.000000e-01     
-5.000000e-02     1.665335e-17     -1.500000e-01     -2.000000e-01     -1.000000e-01     
-5.000000e-02     0.000000e+00     -1.500000e-01     -2.000000e-01     -1.000000e-01     
-5.000000e-02     0.000000e+00     -1.500000e-01     -1.000000e-01     -5.000000e-02     
0.000000e+00     5.000000e-02     -1.500000e-01     -1.000000e-01     -5.000000e-02     
0.000000e+00     5.000000e-02     -1.500000e-01     -1.000000e-01     -5.000000e-02     
0.000000e+00     5.000000e-02     1.000000e-01     1.000000e-01     -1.500000e-01     
-1.000000e-01     -5.000000e-02     0.000000e+00     5.000000e-02     1.000000e-01     
-5.000000e-02     -1.000000e-01     0.000000e+00     -1.000000e-01     -5.000000e-02     
0.000000e+00     5.000000e-02     5.000000e-02     1.000000e-01     1.000000e-01     
-1.500000e-01     -2.000000e-01     -1.000000e-01     -5.000000e-02     0.000000e+00     
5.000000e-02     1.000000e-01     -2.000000e-01     -1.500000e-01     -1.000000e-01     
-5.000000e-02     1.942890e-17     5.000000e-02     1.000000e-01     -2.000000e-01     
-1.500000e-01     -1.000000e-01     -5.000000e-02     0.000000e+00     5.000000e-02     
-2.000000e-01     -1.500000e-01     -1.000000e-01     -5.000000e-02     0.000000e+00     
-1.500000e-01     -1.000000e-01     -5.000000e-02     0.000000e+00     5.000000e-02     
5.000000e-02     -1.500000e-01     -1.000000e-01     -5.000000e-02     0.000000e+00     
5.000000e-02     1.000000e-01     -1.500000e-01     -2.000000e-01     -2.000000e-01     
-1.000000e-01     -5.000000e-02     0.000000e+00     5.000000e-02     1.000000e-01     
1.500000e-01     1.500000e-01     -1.500000e-01     -2.000000e-01     -1.000000e-01     
-5.000000e-02     0.000000e+00     5.000000e-02     1.000000e-01     1.500000e-01     
-5.000000e-02     -1.000000e-01     -5.000000e-02     -1.000000e-01     0.000000e+00     
0.000000e+00     5.000000e-02     1.000000e-01     -1.000000e-01     -5.000000e-02     
0.000000e+00     5.000000e-02     1.000000e-01     -1.500000e-01     -2.000000e-01     
-1.000000e-01     -5.000000e-02     0.000000e+00     5.000000e-02     1.000000e-01     
-2.000000e-01     -1.500000e-01     -1.000000e-01     -5.000000e-02     2.220446e-17     
5.000000e-02     1.000000e-01     -2.000000e-01     -1.500000e-01     -1.000000e-01     
-5.000000e-02     0.000000e+00     5.000000e-02     1.000000e-01     -2.000000e-01     
-1.500000e-01     -1.000000e-01     -5.000000e-02     0.000000e+00     5.000000e-02     
1.000000e-01     -2.500000e-01     -2.000000e-01     -2.500000e-01     -1.500000e-01     
-1.000000e-01     -5.000000e-02     0.000000e+00     5.000000e-02     -3.000000e-01     
-2.500000e-01     -3.000000e-01     -2.000000e-01     -1.500000e-01     -1.000000e-01     
-5.000000e-02     0.000000e+00     5.000000e-02     1.000000e-01     1.500000e-01     
-3.000000e-01     -2.500000e-01     -2.000000e-01     -1.500000e-01     -1.000000e-01     
-5.000000e-02     0.000000e+00     5.000000e-02     1.000000e-01     1.500000e-01     
-3.000000e-01     -2.500000e-01     -2.000000e-01     -1.500000e-01     -1.000000e-01     
-5.000000e-02     0.000000e+00     5.000000e-02     1.000000e-01     1.500000e-01     
-5.000000e-02     -1.000000e-01     0.000000e+00     -1.000000e-01     -5.000000e-02     
0.000000e+00     5.000000e-02     1.000000e-01     -1.000000e-01     -5.000000e-02     
0.000000e+00     5.000000e-02     1.000000e-01     -1.500000e-01     -2.000000e-01     
-1.000000e-01     -5.000000e-02     0.000000e+00     5.000000e-02     1.000000e-01     
-2.000000e-01     -1.500000e-01     -1.000000e-01     -5.000000e-02     2.498002e-17     
5.000000e-02     1.000000e-01     -2.000000e-01     -1.500000e-01     -1.000000e-01     
-5.000000e-02     0.000000e+00     5.000000e-02     1.000000e-01     -2.000000e-01     
-2.500000e-01     -1.500000e-01     -1.000000e-01     -5.000000e-02     0.000000e+00     
5.000000e-02     1.000000e-01     -2.500000e-01     -3.000000e-01     -2.000000e-01     
-1.500000e-01     -1.000000e-01     -5.000000e-02     0.000000e+00     5.000000e-02     
-3.000000e-01     -2.500000e-01     -2.000000e-01     -1.500000e-01     -1.000000e-01     
-5.000000e-02     0.000000e+00     5.000000e-02     1.000000e-01     1.500000e-01     
-3.000000e-01     -2.500000e-01     -2.000000e-01     -1.500000e-01     -1.000000e-01     
-5.000000e-02     0.000000e+00     5.000000e-02     1.000000e-01     1.500000e-01     
-3.000000e-01     -2.500000e-01     -2.000000e-01     -1.500000e-01     -1.000000e-01     
-5.000000e-02     0.000000e+00     5.000000e-02     1.000000e-01     1.500000e-01     
-5.000000e-02     -1.000000e-01     0.000000e+00     -1.000000e-01     -5.000000e-02     
0.000000e+00     5.000000e-02     1.000000e-01     -1.000000e-01     -5.000000e-02     
0.000000e+00     5.000000e-02     1.000000e-01     -1.500000e-01     -2.000000e-01     
-1.000000e-01     -5.000000e-02     0.000000e+00     5.000000e-02     1.000000e-01     
-2.000000e-01     -1.500000e-01     -1.000000e-01     -5.000000e-02     2.775558e-17     
5.000000e-02     1.000000e-01     -2.000000e-01     -1.500000e-01     -1.000000e-01     
-5.000000e-02     0.000000e+00     5.000000e-02     1.000000e-01     -2.000000e-01     
-2.500000e-01     -1.500000e-01     -1.000000e-01     -5.000000e-02     0.000000e+00     
5.000000e-02     1.000000e-01     -2.500000e-01     -3.000000e-01     -2.000000e-01     
-1.500000e-01     -1.000000e-01     -5.000000e-02     0.000000e+00     5.000000e-02     
-3.000000e-01     -2.500000e-01     -2.000000e-01     -1.500000e-01     -1.000000e-01     
-5.000000e-02     0.000000e+00     5.000000e-02     1.000000e-01     1.500000e-01     
-3.000000e-01     -2.500000e-01     -2.000000e-01     -1.500000e-01     -1.000000e-01     
-5.000000e-02     0.000000e+00     5.000000e-02     1.000000e-01     1.500000e-01     
-3.000000e-01     -2.500000e-01     -2.000000e-01     -1.500000e-01     -1.000000e-01     
-5.000000e-02     0.000000e+00     5.000000e-02     1.000000e-01     1.500000e-01     

-3.000000e-01     
-3.000000e-01     -2.500000e-01     -2.500000e-01     -3.000000e-01     -2.500000e-01     
-3.500000e-01     -3.500000e-01     -3.500000e-01     -4.000000e-01     -4.000000e-01     
-4.000000e-01     -4.000000e-01     -3.500000e-01     -4.500000e-01     -4.500000e-01     
-4.500000e-01     -4.500000e-01     -4.500000e-01     -4.000000e-01     -5.000000e-01     
-5.000000e-01     -5.000000e-01     -5.000000e-01     -5.000000e-01     -2.500000e-01     
-2.500000e-01     -2.000000e-01     -2.000000e-01     -2.500000e-01     -2.000000e-01     
-3.000000e-01     -3.000000e-01     -3.000000e-01     -3.000000e-01     -2.500000e-01     
-3.500000e-01     -3.500000e-01     -3.500000e-01     -3.500000e-01     -4.000000e-01     
-4.000000e-01     -4.000000e-01     -4.000000e-01     -4.000000e-01     -3.500000e-01     
-4.500000e-01     -4.500000e-01     -4.500000e-01     -4.500000e-01     -4.500000e-01     
-5.000000e-01     -5.000000e-01     -5.000000e-01     -5.000000e-01     -5.000000e-01     
-2.000000e-01     -2.000000e-01     -2.000000e-01     -2.500000e-01     -2.500000e-01     
-2.500000e-01     -2.500000e-01     -3.000000e-01     -3.000000e-01     -3.000000e-01     
-3.000000e-01     -3.500000e-01     -3.500000e-01     -3.500000e-01     -3.500000e-01     
-3.500000e-01     -4.000000e-01     -4.000000e-01     -4.000000e-01     -4.000000e-01     
-4.000000e-01     -4.500000e-01     -4.500000e-01     -4.500000e-01     -4.500000e-01     
-4.500000e-01     -5.000000e-01     -5.000000e-01     -5.000000e-01     -5.000000e-01     
-5.000000e-01     -1.000000e-01     -1.000000e-01     -5.000000e-02     -5.000000e-02     
-1.000000e-01     -5.000000e-02     -1.500000e-01     -1.500000e-01     -1.500000e-01     
-2.000000e-01     -2.000000e-01     -1.500000e-01     -1.500000e-01     -2.000000e-01     
-2.000000e-01     -2.000000e-01     -2.500000e-01     -2.500000e-01     -2.500000e-01     
-2.500000e-01     -2.500000e-01     -3.000000e-01     -3.000000e-01     -3.000000e-01     
-3.000000e-01     -3.000000e-01     -3.500000e-01     -3.500000e-01     -3.500000e-01     
-3.500000e-01     -3.500000e-01     -4.000000e-01     -4.000000e-01     -4.000000e-01     
-4.000000e-01     -4.000000e-01     -4.500000e-01     -4.500000e-01     -4.500000e-01     
-4.500000e-01     -4.500000e-01     -4.500000e-01     -4.000000e-01     -5.000000e-01     
-5.000000e-01     -5.000000e-01     -5.000000e-01     -5.000000e-01     -5.000000e-01     
-5.000000e-02     -5.000000e-02     -5.000000e-02     -1.000000e-01     -1.000000e-01     
-1.000000e-01     -1.000000e-01     -5.000000e-02     -1.000000e-01     -5.000000e-02     
-1.500000e-01     -1.500000e-01     -1.500000e-01     -1.500000e-01     -1.500000e-01     
-1.500000e-01     -1.500000e-01     -2.000000e-01     -2.000000e-01     -2.000000e-01     
-2.000000e-01     -2.000000e-01     -2.000000e-01     -2.000000e-01     -2.500000e-01     
-2.500000e-01     -2.500000e-01     -2.500000e-01     -2.500000e-01     -2.500000e-01     
-3.000000e-01     -3.000000e-01     -3.000000e-01     -3.000000e-01     -3.000000e-01     
-3.500000e-01     -3.500000e-01     -3.500000e-01     -3.500000e-01     -3.500000e-01     
-3.000000e-01     -4.000000e-01     -4.000000e-01     -4.000000e-01     -4.000000e-01     
-4.000000e-01     -4.000000e-01     -4.500000e-01     -4.500000e-01     -4.000000e-01     
-4.500000e-01     -4.500000e-01     -4.500000e-01     -4.500000e-01     -4.500000e-01     
-4.500000e-01     -4.000000e-01     -5.000000e-01     -5.000000e-01     -5.000000e-01     
-5.000000e-01     -5.000000e-01     -5.000000e-01     -5.000000e-01     -5.000000e-01     
-5.000000e-02     -5.000000e-02     0.000000e+00     0.000000e+00     -5.000000e-02     
0.000000e+00     -5.000000e-02     -5.000000e-02     -1.000000e-01     -1.000000e-01     
-1.000000e-01     -1.000000e-01     -1.000000e-01     -1.500000e-01     -1.500000e-01     
-1.500000e-01     -1.500000e-01     -1.500000e-01     -1.500000e-01     -1.500000e-01     
-2.000000e-01     -2.000000e-01     -2.000000e-01     -2.000000e-01     -2.000000e-01     
-2.000000e-01     -2.000000e-01     -2.500000e-01     -2.500000e-01     -2.500000e-01     
-2.500000e-01     -2.500000e-01     -2.500000e-01     -2.500000e-01     -3.000000e-01     
-3.000000e-01     -3.000000e-01     -3.000000e-01     -3.000000e-01     -3.000000e-01     
-3.000000e-01     -3.500000e-01     -3.500000e-01     -3.000000e-01     -3.500000e-01     
-3.500000e-01     -3.500000e-01     -3.500000e-01     -3.500000e-01     -4.000000e-01     
-4.000000e-01     -3.500000e-01     -4.000000e-01     -4.000000e-01     -4.000000e-01     
-4.000000e-01     -4.000000e-01     -4.000000e-01     -4.000000e-01     -4.000000e-01     
-4.500000e-01     -4.500000e-01     -4.500000e-01     -4.500000e-01     -4.500000e-01     
-4.500000e-01     -4.500000e-01     -4.500000e-01     -4.500000e-01     -4.500000e-01     
-5.000000e-01     -5.000000e-01     -5.000000e-01     -5.000000e-01     -5.000000e-01     
-5.000000e-01     -5.000000e-01     -5.000000e-01     -5.000000e-01     -5.000000e-01     
0.000000e+00     0.000000e+00     0.000000e+00     -5.000000e-02     -5.000000e-02     
-5.000000e-02     -5.000000e-02     -5.000000e-02     -1.000000e-01     -1.000000e-01     
-1.000000e-01     -1.000000e-01     -1.000000e-01     -1.500000e-01     -1.500000e-01     
-1.500000e-01     -1.500000e-01     -1.500000e-01     -1.500000e-01     -1.500000e-01     
-2.000000e-01     -2.000000e-01     -2.000000e-01     -2.000000e-01     -2.000000e-01     
-2.000000e-01     -2.000000e-01     -2.500000e-01     -2.500000e-01     -2.500000e-01     
-2.500000e-01     -2.500000e-01     -2.500000e-01     -2.500000e-01     -3.000000e-01     
-3.000000e-01     -3.000000e-01     -3.000000e-01     -3.000000e-01     -3.000000e-01     
-3.000000e-01     -3.000000e-01     -3.500000e-01     -3.500000e-01     -3.500000e-01     
-3.500000e-01     -3.500000e-01     -3.500000e-01     -3.500000e-01     -3.500000e-01     
-4.000000e-01     -4.000000e-01     -4.000000e-01     -4.000000e-01     -4.000000e-01     
-4.000000e-01     -4.000000e-01     -4.000000e-01     -4.000000e-01     -4.000000e-01     
-4.500000e-01     -4.500000e-01     -4.500000e-01     -4.500000e-01     -4.500000e-01     
-4.500000e-01     -4.500000e-01     -4.500000e-01     -4.500000e-01     -4.500000e-01     
-5.000000e-01     -5.000000e-01     -5.000000e-01     -5.000000e-01     -5.000000e-01     
-5.000000e-01     -5.000000e-01     -5.000000e-01     -5.000000e-01     -5.000000e-01     
0.000000e+00     0.000000e+00     0.000000e+00     -5.000000e-02     -5.000000e-02     
-5.000000e-02     -5.000000e-02     -5.000000e-02     -1.000000e-01     -1.000000e-01     
-1.000000e-01     -1.000000e-01     -1.000000e-01     -1.500000e-01     -1.500000e-01     
-1.500000e-01     -1.500000e-01     -1.500000e-01     -1.500000e-01     -1.500000e-01     
-2.000000e-01     -2.000000e-01     -2.000000e-01     -2.000000e-01     -2.000000e-01     
-2.000000e-01     -2.000000e-01     -2.500000e-01     -2.500000e-01     -2.500000e-01     
-2.500000e-01     -2.500000e-01     -2.500000e-01     -2.500000e-01     -3.000000e-01     
-3.000000e-01     -3.000000e-01     -3.000000e-01     -3.000000e-01     -3.000000e-01     
-3.000000e-01     -3.000000e-01     -3.500000e-01     -3.500000e-01     -3.500000e-01     
-3.500000e-01     -3.500000e-01     -3.500000e-01     -3.500000e-01     -3.500000e-01     
-4.000000e-01     -4.000000e-01     -4.000000e-01     -4.000000e-01     -4.000000e-01     
-4.000000e-01     -4.000000e-01     -4.000000e-01     -4.000000e-01     -4.000000e-01     
-4.500000e-01     -4.500000e-01     -4.500000e-01     -4.500000e-01     -4.500000e-01     
-4.500000e-01     -4.500000e-01     -4.500000e-01     -4.500000e-01     -4.500000e-01     
-5.000000e-01     -5.000000e-01     -5.000000e-01     -5.000000e-01     -5.000000e-01     
-5.000000e-01     -5.000000e-01     -5.000000e-01     -5.000000e-01     -5.000000e-01     


0      
0      0      0      0      0      0      0      0      0      0      
0      0      0      0      0      0      0      0      0      0      
0      0      0      0      0      0      0      0      0      0      
0      0      0      0      0      0      0      0      0      0      
0      0      0      0      0      0      0      0      0      0      
0      0      0      0      0      0      0      0      0      0      
0      0      0      0      0      0      0      0      0      0      
0      0      0      0      0      0      0      0      0      0      
0      0      0      0      0      0      0      0      0      0      
0      0      0      0      0      0      0      0      0      0      
0      0      0      0      0      0      0      0      0      0      
0      0      0      0      0      0      0      0      0      0      
0      0      0      0      0      0      0      0      0      0      
0      0      0      0      0      0      0      0      0      0      
0      0      0      0      0      0      0      0      0      0      
0      0      0      0      0      0      0      0      0      0      
0      0      0      0      0      0      0      0      0      0      
0      0      0      0      0      0      0      0      0      0      
0      0      0      0      0      0      0      0      0      0      
0      0      0      0      0      0      0      0      0      0      
0      0      0      0      0      0      0      0      0      0      
0      0      0      0      0      0      0      0      0      0      
0      0      0      0      0      0      0      0      0      0      
0      0      0      0      0      0      0      0      0      0      
0      0      0      0      0      0      0      0      0      0      
1      1      1      1      1      1      1      1      1      1      
1      1      1      1      1      1      1      1      1      1      
1      1      1      1      1      1      1      1      1      1      
1      1      1      1      1      1      1      1      1      1      
1      1      1      1      1      1      1      1      1      1      
1      1      1      1      1      1      1      1      1      1      
1      1      1      1      1      1      1      1      1      1      
1      1      1      1      1      1      1      1      1      1      
1      1      1      1      1      1      1      1      1      1      
1      1      1      1      1      1      1      1      1      1      
1      1      1      1      1      1      1      1      1      1      
1      1      1      1      1      1      1      1      1      1      
1      1      1      1      1      1      1      1      1      1      
1      1      1      1      1      1      1      1      1      1      
1      1      1      1      1      1      1      1      1      1      
1      1      1      1      1      1      1      1      1      1      
1      1      1      1      1      1      1      1      1      1      
1      1      1      1      1      1      1      1      1      1      
1      1      1      1      1      1      1      1      1      1      
1      1      1      1      1      1      1      1      1      1      
1      1      1      1      1      1      1      1      1      1      
1      1      1      1      1      1      1      1      1      1      
1      1      1      1      1      1      1      1      1      1      
1      1      1      1      1      1      1      1      1      1      
1      1      1      1      1      1      1      1      1      1      
1      1      1      1      1      1      1      1      1      1      
1      1      1      1      1      1      1      1      1      1      
1      1      1      1      1      1      1      1      1      1      
1      1      1      1      1      1      1      1      1      1      
1      1      1      1      1      1      1      1      1      1      
1      1      1      1      1      1      1      1      1      1      
1      1      1      1      1      1      1      1      1      1      
1      1      1      1      

26      33      2      3      30      34      5      6      
3      2      33      26      4      1      32      27      
33      32      1      2      38      37      7      8      
32      33      26      27      64      65      61      60      
34      33      2      5      39      38      8      9      
33      34      30      26      65      66      62      61      
38      37      7      8      42      41      10      11      
37      38      33      32      68      69      65      64      
39      38      8      9      43      42      11      12      
38      39      34      33      69      70      66      65      
42      41      10      11      48      47      15      16      
41      42      38      37      73      74      69      68      
39      43      12      9      40      44      13      14      
43      42      11      12      49      48      16      17      
42      43      39      38      74      75      70      69      
44      43      12      13      50      49      17      18      
43      44      40      39      75      76      71      70      
48      47      15      16      53      52      21      22      
47      48      42      41      78      79      74      73      
49      48      16      17      54      53      22      23      
48      49      43      42      79      80      75      74      
44      50      18      13      45      51      19      20      
50      49      17      18      55      54      23      24      
49      50      44      43      80      81      76      75      
51      50      18      19      56      55      24      25      
50      51      45      44      81      82      77      76      
52      53      48      47      83      84      79      78      
53      54      49      48      84      85      80      79      