title = " tecplot file for process Mesh " 
variables = "x",  "y", "z", "cell_type" 
zone N = 396 E = 500 DATAPACKING = BLOCK,  VARLOCATION = ([4]=CELLCENTERED), ZONETYPE=FEBRICK 
1.387779e-17     
0.000000e+00     0.000000e+00     6.938894e-18     0.000000e+00     0.000000e+00     
0.000000e+00     0.000000e+00     2.775558e-17     2.775558e-17     0.000000e+00     
0.000000e+00     -2.775558e-17     -2.775558e-17     -2.775558e-17     -2.775558e-17     
0.000000e+00     0.000000e+00     0.000000e+00     0.000000e+00     0.000000e+00     
0.000000e+00     0.000000e+00     0.000000e+00     1.387779e-17     0.000000e+00     
0.000000e+00     0.000000e+00     2.775558e-17     0.000000e+00     0.000000e+00     
0.000000e+00     0.000000e+00     0.000000e+00     0.000000e+00     0.000000e+00     
-5.000000e-02     -5.000000e-02     -5.000000e-02     -5.000000e-02     -5.000000e-02     
-5.000000e-02     -5.000000e-02     -5.000000e-02     -5.000000e-02     -5.000000e-02     
-5.000000e-02     -5.000000e-02     -5.000000e-02     -5.000000e-02     -5.000000e-02     
-5.000000e-02     -5.000000e-02     -5.000000e-02     -5.000000e-02     -5.000000e-02     
-5.000000e-02     -5.000000e-02     -5.000000e-02     -5.000000e-02     -5.000000e-02     
-5.000000e-02     -5.000000e-02     -5.000000e-02     -5.000000e-02     -5.000000e-02     
-5.000000e-02     -5.000000e-02     -5.000000e-02     -5.000000e-02     -5.000000e-02     
-5.000000e-02     -1.000000e-01     -1.000000e-01     -1.000000e-01     -1.000000e-01     
-1.000000e-01     -1.000000e-01     -1.000000e-01     -1.000000e-01     -1.000000e-01     
-1.000000e-01     -1.000000e-01     -1.000000e-01     -1.000000e-01     -1.000000e-01     
-1.000000e-01     -1.000000e-01     -1.000000e-01     -1.000000e-01     -1.000000e-01     
-1.000000e-01     -1.000000e-01     -1.000000e-01     -1.000000e-01     -1.000000e-01     
-1.000000e-01     -1.000000e-01     -1.000000e-01     -1.000000e-01     -1.000000e-01     
-1.000000e-01     -1.000000e-01     -1.000000e-01     -1.000000e-01     -1.000000e-01     
-1.000000e-01     -1.000000e-01     -1.500000e-01     -1.500000e-01     -1.500000e-01     
-1.500000e-01     -1.500000e-01     -1.500000e-01     -1.500000e-01     -1.500000e-01     
-1.500000e-01     -1.500000e-01     -1.500000e-01     -1.500000e-01     -1.500000e-01     
-1.500000e-01     -1.500000e-01     -1.500000e-01     -1.500000e-01     -1.500000e-01     
-1.500000e-01     -1.500000e-01     -1.500000e-01     -1.500000e-01     -1.500000e-01     
-1.500000e-01     -1.500000e-01     -1.500000e-01     -1.500000e-01     -1.500000e-01     
-1.500000e-01     -1.500000e-01     -1.500000e-01     -1.500000e-01     -1.500000e-01     
-1.500000e-01     -1.500000e-01     -1.500000e-01     -2.000000e-01     -2.000000e-01     
-2.000000e-01     -2.000000e-01     -2.000000e-01     -2.000000e-01     -2.000000e-01     
-2.000000e-01     -2.000000e-01     -2.000000e-01     -2.000000e-01     -2.000000e-01     
-2.000000e-01     -2.000000e-01     -2.000000e-01     -2.000000e-01     -2.000000e-01     
-2.000000e-01     -2.000000e-01     -2.000000e-01     -2.000000e-01     -2.000000e-01     
-2.000000e-01     -2.000000e-01     -2.000000e-01     -2.000000e-01     -2.000000e-01     
-2.000000e-01     -2.000000e-01     -2.000000e-01     -2.000000e-01     -2.000000e-01     
-2.000000e-01     -2.000000e-01     -2.000000e-01     -2.000000e-01     -2.500000e-01     
-2.500000e-01     -2.500000e-01     -2.500000e-01     -2.500000e-01     -2.500000e-01     
-2.500000e-01     -2.500000e-01     -2.500000e-01     -2.500000e-01     -2.500000e-01     
-2.500000e-01     -2.500000e-01     -2.500000e-01     -2.500000e-01     -2.500000e-01     
-2.500000e-01     -2.500000e-01     -2.500000e-01     -2.500000e-01     -2.500000e-01     
-2.500000e-01     -2.500000e-01     -2.500000e-01     -2.500000e-01     -2.500000e-01     
-2.500000e-01     -2.500000e-01     -2.500000e-01     -2.500000e-01     -2.500000e-01     
-2.500000e-01     -2.500000e-01     -2.500000e-01     -2.500000e-01     -2.500000e-01     
-3.000000e-01     -3.000000e-01     -3.000000e-01     -3.000000e-01     -3.000000e-01     
-3.000000e-01     -3.000000e-01     -3.000000e-01     -3.000000e-01     -3.000000e-01     
-3.000000e-01     -3.000000e-01     -3.000000e-01     -3.000000e-01     -3.000000e-01     
-3.000000e-01     -3.000000e-01     -3.000000e-01     -3.000000e-01     -3.000000e-01     
-3.000000e-01     -3.000000e-01     -3.000000e-01     -3.000000e-01     -3.000000e-01     
-3.000000e-01     -3.000000e-01     -3.000000e-01     -3.000000e-01     -3.000000e-01     
-3.000000e-01     -3.000000e-01     -3.000000e-01     -3.000000e-01     -3.000000e-01     
-3.000000e-01     -3.500000e-01     -3.500000e-01     -3.500000e-01     -3.500000e-01     
-3.500000e-01     -3.500000e-01     -3.500000e-01     -3.500000e-01     -3.500000e-01     
-3.500000e-01     -3.500000e-01     -3.500000e-01     -3.500000e-01     -3.500000e-01     
-3.500000e-01     -3.500000e-01     -3.500000e-01     -3.500000e-01     -3.500000e-01     
-3.500000e-01     -3.500000e-01     -3.500000e-01     -3.500000e-01     -3.500000e-01     
-3.500000e-01     -3.500000e-01     -3.500000e-01     -3.500000e-01     -3.500000e-01     
-3.500000e-01     -3.500000e-01     -3.500000e-01     -3.500000e-01     -3.500000e-01     
-3.500000e-01     -3.500000e-01     -4.000000e-01     -4.000000e-01     -4.000000e-01     
-4.000000e-01     -4.000000e-01     -4.000000e-01     -4.000000e-01     -4.000000e-01     
-4.000000e-01     -4.000000e-01     -4.000000e-01     -4.000000e-01     -4.000000e-01     
-4.000000e-01     -4.000000e-01     -4.000000e-01     -4.000000e-01     -4.000000e-01     
-4.000000e-01     -4.000000e-01     -4.000000e-01     -4.000000e-01     -4.000000e-01     
-4.000000e-01     -4.000000e-01     -4.000000e-01     -4.000000e-01     -4.000000e-01     
-4.000000e-01     -4.000000e-01     -4.000000e-01     -4.000000e-01     -4.000000e-01     
-4.000000e-01     -4.000000e-01     -4.000000e-01     -4.500000e-01     -4.500000e-01     
-4.500000e-01     -4.500000e-01     -4.500000e-01     -4.500000e-01     -4.500000e-01     
-4.500000e-01     -4.500000e-01     -4.500000e-01     -4.500000e-01     -4.500000e-01     
-4.500000e-01     -4.500000e-01     -4.500000e-01     -4.500000e-01     -4.500000e-01     
-4.500000e-01     -4.500000e-01     -4.500000e-01     -4.500000e-01     -4.500000e-01     
-4.500000e-01     -4.500000e-01     -4.500000e-01     -4.500000e-01     -4.500000e-01     
-4.500000e-01     -4.500000e-01     -4.500000e-01     -4.500000e-01     -4.500000e-01     
-4.500000e-01     -4.500000e-01     -4.500000e-01     -4.500000e-01     -5.000000e-01     
-5.000000e-01     -5.000000e-01     -5.000000e-01     -5.000000e-01     -5.000000e-01     
-5.000000e-01     -5.000000e-01     -5.000000e-01     -5.000000e-01     -5.000000e-01     
-5.000000e-01     -5.000000e-01     -5.000000e-01     -5.000000e-01     -5.000000e-01     
-5.000000e-01     -5.000000e-01     -5.000000e-01     -5.000000e-01     -5.000000e-01     
-5.000000e-01     -5.000000e-01     -5.000000e-01     -5.000000e-01     -5.000000e-01     
-5.000000e-01     -5.000000e-01     -5.000000e-01     -5.000000e-01     -5.000000e-01     
-5.000000e-01     -5.000000e-01     -5.000000e-01     -5.000000e-01     -5.000000e-01     

-5.000000e-01     
-4.500000e-01     -4.500000e-01     -5.000000e-01     -4.000000e-01     -4.000000e-01     
-3.500000e-01     -3.500000e-01     -3.000000e-01     -3.000000e-01     -2.500000e-01     
-2.500000e-01     -5.000000e-01     -4.500000e-01     -4.000000e-01     -3.500000e-01     
-3.000000e-01     -2.500000e-01     -5.000000e-01     -4.500000e-01     -4.000000e-01     
-3.500000e-01     -3.000000e-01     -2.500000e-01     -5.000000e-01     -4.500000e-01     
-4.000000e-01     -3.500000e-01     -3.000000e-01     -2.500000e-01     -5.000000e-01     
-4.500000e-01     -4.000000e-01     -3.500000e-01     -3.000000e-01     -2.500000e-01     
-4.500000e-01     -5.000000e-01     -4.000000e-01     -3.500000e-01     -3.000000e-01     
-2.500000e-01     -4.500000e-01     -5.000000e-01     -4.000000e-01     -3.500000e-01     
-3.000000e-01     -2.500000e-01     -4.500000e-01     -5.000000e-01     -4.000000e-01     
-3.500000e-01     -3.000000e-01     -2.500000e-01     -4.500000e-01     -5.000000e-01     
-4.000000e-01     -3.500000e-01     -3.000000e-01     -2.500000e-01     -4.500000e-01     
-5.000000e-01     -4.000000e-01     -3.500000e-01     -3.000000e-01     -2.500000e-01     
-4.500000e-01     -5.000000e-01     -4.000000e-01     -3.500000e-01     -3.000000e-01     
-2.500000e-01     -4.500000e-01     -5.000000e-01     -4.000000e-01     -3.500000e-01     
-3.000000e-01     -2.500000e-01     -4.500000e-01     -5.000000e-01     -4.000000e-01     
-3.500000e-01     -3.000000e-01     -2.500000e-01     -4.500000e-01     -5.000000e-01     
-4.000000e-01     -3.500000e-01     -3.000000e-01     -2.500000e-01     -4.500000e-01     
-5.000000e-01     -4.000000e-01     -3.500000e-01     -3.000000e-01     -2.500000e-01     
-4.500000e-01     -5.000000e-01     -4.000000e-01     -3.500000e-01     -3.000000e-01     
-2.500000e-01     -4.500000e-01     -5.000000e-01     -4.000000e-01     -3.500000e-01     
-3.000000e-01     -2.500000e-01     -4.500000e-01     -5.000000e-01     -4.000000e-01     
-3.500000e-01     -3.000000e-01     -2.500000e-01     -4.500000e-01     -5.000000e-01     
-4.000000e-01     -3.500000e-01     -3.000000e-01     -2.500000e-01     -4.500000e-01     
-5.000000e-01     -4.000000e-01     -3.500000e-01     -3.000000e-01     -2.500000e-01     
-4.500000e-01     -5.000000e-01     -4.000000e-01     -3.500000e-01     -3.000000e-01     
-2.500000e-01     -4.500000e-01     -5.000000e-01     -4.000000e-01     -3.500000e-01     
-3.000000e-01     -2.500000e-01     -4.500000e-01     -5.000000e-01     -4.000000e-01     
-3.500000e-01     -3.000000e-01     -2.500000e-01     -4.500000e-01     -5.000000e-01     
-4.000000e-01     -3.500000e-01     -3.000000e-01     -2.500000e-01     -4.500000e-01     
-5.000000e-01     -4.000000e-01     -3.500000e-01     -3.000000e-01     -2.500000e-01     
-4.500000e-01     -5.000000e-01     -4.000000e-01     -3.500000e-01     -3.000000e-01     
-2.500000e-01     -4.500000e-01     -5.000000e-01     -4.000000e-01     -3.500000e-01     
-3.000000e-01     -2.500000e-01     -4.500000e-01     -5.000000e-01     -4.000000e-01     
-3.500000e-01     -3.000000e-01     -2.500000e-01     -4.500000e-01     -5.000000e-01     
-4.000000e-01     -3.500000e-01     -3.000000e-01     -2.500000e-01     -4.500000e-01     
-5.000000e-01     -4.000000e-01     -3.500000e-01     -3.000000e-01     -2.500000e-01     
-4.500000e-01     -5.000000e-01     -4.000000e-01     -3.500000e-01     -3.000000e-01     
-2.500000e-01     -4.500000e-01     -5.000000e-01     -4.000000e-01     -3.500000e-01     
-3.000000e-01     -2.500000e-01     -4.500000e-01     -5.000000e-01     -4.000000e-01     
-3.500000e-01     -3.000000e-01     -2.500000e-01     -4.500000e-01     -5.000000e-01     
-4.000000e-01     -3.500000e-01     -3.000000e-01     -2.500000e-01     -4.500000e-01     
-5.000000e-01     -4.000000e-01     -3.500000e-01     -3.000000e-01     -2.500000e-01     
-4.500000e-01     -5.000000e-01     -4.000000e-01     -3.500000e-01     -3.000000e-01     
-2.500000e-01     -4.500000e-01     -5.000000e-01     -4.000000e-01     -3.500000e-01     
-3.000000e-01     -2.500000e-01     -4.500000e-01     -5.000000e-01     -4.000000e-01     
-3.500000e-01     -3.000000e-01     -2.500000e-01     -4.500000e-01     -5.000000e-01     
-4.000000e-01     -3.500000e-01     -3.000000e-01     -2.500000e-01     -4.500000e-01     
-5.000000e-01     -4.000000e-01     -3.500000e-01     -3.000000e-01     -2.500000e-01     
-4.500000e-01     -5.000000e-01     -4.000000e-01     -3.500000e-01     -3.000000e-01     
-2.500000e-01     -4.500000e-01     -5.000000e-01     -4.000000e-01     -3.500000e-01     
-3.000000e-01     -2.500000e-01     -4.500000e-01     -5.000000e-01     -4.000000e-01     
-3.500000e-01     -3.000000e-01     -2.500000e-01     -4.500000e-01     -5.000000e-01     
-4.000000e-01     -3.500000e-01     -3.000000e-01     -2.500000e-01     -4.500000e-01     
-5.000000e-01     -4.000000e-01     -3.500000e-01     -3.000000e-01     -2.500000e-01     
-4.500000e-01     -5.000000e-01     -4.000000e-01     -3.500000e-01     -3.000000e-01     
-2.500000e-01     -4.500000e-01     -5.000000e-01     -4.000000e-01     -3.500000e-01     
-3.000000e-01     -2.500000e-01     -4.500000e-01     -5.000000e-01     -4.000000e-01     
-3.500000e-01     -3.000000e-01     -2.500000e-01     -4.500000e-01     -5.000000e-01     
-4.000000e-01     -3.500000e-01     -3.000000e-01     -2.500000e-01     -4.500000e-01     
-5.000000e-01     -4.000000e-01     -3.500000e-01     -3.000000e-01     -2.500000e-01     
-4.500000e-01     -5.000000e-01     -4.000000e-01     -3.500000e-01     -3.000000e-01     
-2.500000e-01     -4.500000e-01     -5.000000e-01     -4.000000e-01     -3.500000e-01     
-3.000000e-01     -2.500000e-01     -4.500000e-01     -5.000000e-01     -4.000000e-01     
-3.500000e-01     -3.000000e-01     -2.500000e-01     -4.500000e-01     -5.000000e-01     
-4.000000e-01     -3.500000e-01     -3.000000e-01     -2.500000e-01     -4.500000e-01     
-5.000000e-01     -4.000000e-01     -3.500000e-01     -3.000000e-01     -2.500000e-01     
-4.500000e-01     -5.000000e-01     -4.000000e-01     -3.500000e-01     -3.000000e-01     
-2.500000e-01     -4.500000e-01     -5.000000e-01     -4.000000e-01     -3.500000e-01     
-3.000000e-01     -2.500000e-01     -4.500000e-01     -5.000000e-01     -4.000000e-01     
-3.500000e-01     -3.000000e-01     -2.500000e-01     -4.500000e-01     -5.000000e-01     
-4.000000e-01     -3.500000e-01     -3.000000e-01     -2.500000e-01     -4.500000e-01     
-5.000000e-01     -4.000000e-01     -3.500000e-01     -3.000000e-01     -2.500000e-01     
-4.500000e-01     -5.000000e-01     -4.000000e-01     -3.500000e-01     -3.000000e-01     
-2.500000e-01     -4.500000e-01     -5.000000e-01     -4.000000e-01     -3.500000e-01     
-3.000000e-01     -2.500000e-01     -4.500000e-01     -5.000000e-01     -4.000000e-01     
-3.500000e-01     -3.000000e-01     -2.500000e-01     -4.500000e-01     -5.000000e-01     
-4.000000e-01     -3.500000e-01     -3.000000e-01     -2.500000e-01     -4.500000e-01     
-5.000000e-01     -4.000000e-01     -3.500000e-01     -3.000000e-01     -2.500000e-01     

2.000000e-01     
2.000000e-01     2.500000e-01     2.500000e-01     2.000000e-01     2.500000e-01     
2.000000e-01     2.500000e-01     2.000000e-01     2.500000e-01     2.000000e-01     
2.500000e-01     1.500000e-01     1.500000e-01     1.500000e-01     1.500000e-01     
1.500000e-01     1.500000e-01     1.000000e-01     1.000000e-01     1.000000e-01     
1.000000e-01     1.000000e-01     1.000000e-01     5.000000e-02     5.000000e-02     
5.000000e-02     5.000000e-02     5.000000e-02     5.000000e-02     0.000000e+00     
0.000000e+00     0.000000e+00     0.000000e+00     0.000000e+00     0.000000e+00     
2.500000e-01     2.500000e-01     2.500000e-01     2.500000e-01     2.500000e-01     
2.500000e-01     2.000000e-01     2.000000e-01     2.000000e-01     2.000000e-01     
2.000000e-01     2.000000e-01     1.500000e-01     1.500000e-01     1.500000e-01     
1.500000e-01     1.500000e-01     1.500000e-01     1.000000e-01     1.000000e-01     
1.000000e-01     1.000000e-01     1.000000e-01     1.000000e-01     5.000000e-02     
5.000000e-02     5.000000e-02     5.000000e-02     5.000000e-02     5.000000e-02     
0.000000e+00     0.000000e+00     0.000000e+00     0.000000e+00     0.000000e+00     
0.000000e+00     2.500000e-01     2.500000e-01     2.500000e-01     2.500000e-01     
2.500000e-01     2.500000e-01     2.000000e-01     2.000000e-01     2.000000e-01     
2.000000e-01     2.000000e-01     2.000000e-01     1.500000e-01     1.500000e-01     
1.500000e-01     1.500000e-01     1.500000e-01     1.500000e-01     1.000000e-01     
1.000000e-01     1.000000e-01     1.000000e-01     1.000000e-01     1.000000e-01     
5.000000e-02     5.000000e-02     5.000000e-02     5.000000e-02     5.000000e-02     
5.000000e-02     0.000000e+00     0.000000e+00     0.000000e+00     0.000000e+00     
0.000000e+00     0.000000e+00     2.500000e-01     2.500000e-01     2.500000e-01     
2.500000e-01     2.500000e-01     2.500000e-01     2.000000e-01     2.000000e-01     
2.000000e-01     2.000000e-01     2.000000e-01     2.000000e-01     1.500000e-01     
1.500000e-01     1.500000e-01     1.500000e-01     1.500000e-01     1.500000e-01     
1.000000e-01     1.000000e-01     1.000000e-01     1.000000e-01     1.000000e-01     
1.000000e-01     5.000000e-02     5.000000e-02     5.000000e-02     5.000000e-02     
5.000000e-02     5.000000e-02     0.000000e+00     0.000000e+00     0.000000e+00     
0.000000e+00     0.000000e+00     0.000000e+00     2.500000e-01     2.500000e-01     
2.500000e-01     2.500000e-01     2.500000e-01     2.500000e-01     2.000000e-01     
2.000000e-01     2.000000e-01     2.000000e-01     2.000000e-01     2.000000e-01     
1.500000e-01     1.500000e-01     1.500000e-01     1.500000e-01     1.500000e-01     
1.500000e-01     1.000000e-01     1.000000e-01     1.000000e-01     1.000000e-01     
1.000000e-01     1.000000e-01     5.000000e-02     5.000000e-02     5.000000e-02     
5.000000e-02     5.000000e-02     5.000000e-02     0.000000e+00     0.000000e+00     
0.000000e+00     0.000000e+00     0.000000e+00     0.000000e+00     2.500000e-01     
2.500000e-01     2.500000e-01     2.500000e-01     2.500000e-01     2.500000e-01     
2.000000e-01     2.000000e-01     2.000000e-01     2.000000e-01     2.000000e-01     
2.000000e-01     1.500000e-01     1.500000e-01     1.500000e-01     1.500000e-01     
1.500000e-01     1.500000e-01     1.000000e-01     1.000000e-01     1.000000e-01     
1.000000e-01     1.000000e-01     1.000000e-01     5.000000e-02     5.000000e-02     
5.000000e-02     5.000000e-02     5.000000e-02     5.000000e-02     0.000000e+00     
0.000000e+00     0.000000e+00     0.000000e+00     0.000000e+00     0.000000e+00     
2.500000e-01     2.500000e-01     2.500000e-01     2.500000e-01     2.500000e-01     
2.500000e-01     2.000000e-01     2.000000e-01     2.000000e-01     2.000000e-01     
2.000000e-01     2.000000e-01     1.500000e-01     1.500000e-01     1.500000e-01     
1.500000e-01     1.500000e-01     1.500000e-01     1.000000e-01     1.000000e-01     
1.000000e-01     1.000000e-01     1.000000e-01     1.000000e-01     5.000000e-02     
5.000000e-02     5.000000e-02     5.000000e-02     5.000000e-02     5.000000e-02     
0.000000e+00     0.000000e+00     0.000000e+00     0.000000e+00     0.000000e+00     
0.000000e+00     2.500000e-01     2.500000e-01     2.500000e-01     2.500000e-01     
2.500000e-01     2.500000e-01     2.000000e-01     2.000000e-01     2.000000e-01     
2.000000e-01     2.000000e-01     2.000000e-01     1.500000e-01     1.500000e-01     
1.500000e-01     1.500000e-01     1.500000e-01     1.500000e-01     1.000000e-01     
1.000000e-01     1.000000e-01     1.000000e-01     1.000000e-01     1.000000e-01     
5.000000e-02     5.000000e-02     5.000000e-02     5.000000e-02     5.000000e-02     
5.000000e-02     0.000000e+00     0.000000e+00     0.000000e+00     0.000000e+00     
0.000000e+00     0.000000e+00     2.500000e-01     2.500000e-01     2.500000e-01     
2.500000e-01     2.500000e-01     2.500000e-01     2.000000e-01     2.000000e-01     
2.000000e-01     2.000000e-01     2.000000e-01     2.000000e-01     1.500000e-01     
1.500000e-01     1.500000e-01     1.500000e-01     1.500000e-01     1.500000e-01     
1.000000e-01     1.000000e-01     1.000000e-01     1.000000e-01     1.000000e-01     
1.000000e-01     5.000000e-02     5.000000e-02     5.000000e-02     5.000000e-02     
5.000000e-02     5.000000e-02     0.000000e+00     0.000000e+00     0.000000e+00     
0.000000e+00     0.000000e+00     0.000000e+00     2.500000e-01     2.500000e-01     
2.500000e-01     2.500000e-01     2.500000e-01     2.500000e-01     2.000000e-01     
2.000000e-01     2.000000e-01     2.000000e-01     2.000000e-01     2.000000e-01     
1.500000e-01     1.500000e-01     1.500000e-01     1.500000e-01     1.500000e-01     
1.500000e-01     1.000000e-01     1.000000e-01     1.000000e-01     1.000000e-01     
1.000000e-01     1.000000e-01     5.000000e-02     5.000000e-02     5.000000e-02     
5.000000e-02     5.000000e-02     5.000000e-02     0.000000e+00     0.000000e+00     
0.000000e+00     0.000000e+00     0.000000e+00     0.000000e+00     2.500000e-01     
2.500000e-01     2.500000e-01     2.500000e-01     2.500000e-01     2.500000e-01     
2.000000e-01     2.000000e-01     2.000000e-01     2.000000e-01     2.000000e-01     
2.000000e-01     1.500000e-01     1.500000e-01     1.500000e-01     1.500000e-01     
1.500000e-01     1.500000e-01     1.000000e-01     1.000000e-01     1.000000e-01     
1.000000e-01     1.000000e-01     1.000000e-01     5.000000e-02     5.000000e-02     
5.000000e-02     5.000000e-02     5.000000e-02     5.000000e-02     0.000000e+00     
0.000000e+00     0.000000e+00     0.000000e+00     0.000000e+00     0.000000e+00     


0      
0      0      0      0      0      0      0      0      0      0      
0      0      0      0      0      0      0      0      0      0      
0      0      0      0      0      0      0      0      0      0      
0      0      0      0      0      0      0      0      0      0      
0      0      0      0      0      0      0      0      0      0      
0      0      0      0      0      0      0      0      0      0      
0      0      0      0      0      0      0      0      0      0      
0      0      0      0      0      0      0      0      0      0      
0      0      0      0      0      0      0      0      0      0      
0      0      0      0      0      0      0      0      0      0      
0      0      0      0      0      0      0      0      0      0      
0      0      0      0      0      0      0      0      0      0      
0      0      0      0      0      0      0      0      0      0      
0      0      0      0      0      0      0      0      0      0      
0      0      0      0      0      0      0      0      0      0      
0      0      0      0      0      0      0      0      0      0      
0      0      0      0      0      0      0      0      0      0      
0      0      0      0      0      0      0      0      0      0      
0      0      0      0      0      0      0      0      0      0      
0      0      0      0      0      0      0      0      0      0      
0      0      0      0      0      0      0      0      0      0      
0      0      0      0      0      0      0      0      0      0      
0      0      0      0      0      0      0      0      0      0      
0      0      0      0      0      0      0      0      0      0      
0      0      0      0      0      0      0      0      0      1      
1      1      1      1      1      1      1      1      1      1      
1      1      1      1      1      1      1      1      1      1      
1      1      1      1      1      1      1      1      1      1      
1      1      1      1      1      1      1      1      1      1      
1      1      1      1      1      1      1      1      1      1      
1      1      1      1      1      1      1      1      1      1      
1      1      1      1      1      1      1      1      1      1      
1      1      1      1      1      1      1      1      1      1      
1      1      1      1      1      1      1      1      1      1      
1      1      1      1      1      1      1      1      1      1      
1      1      1      1      1      1      1      1      1      1      
1      1      1      1      1      1      1      1      1      1      
1      1      1      1      1      1      1      1      1      1      
1      1      1      1      1      1      1      1      1      1      
1      1      1      1      1      1      1      1      1      1      
1      1      1      1      1      1      1      1      1      1      
1      1      1      1      1      1      1      1      1      1      
1      1      1      1      1      1      1      1      1      1      
1      1      1      1      1      1      1      1      1      1      
1      1      1      1      1      1      1      1      1      1      
1      1      1      1      1      1      1      1      1      1      
1      1      1      1      1      1      1      1      1      1      
1      1      1      1      1      1      1      1      1      1      
1      1      1      1      1      1      1      1      1      1      
1      1      1      1      1      1      1      1      1      

37      43      2      3      39      45      5      6      
3      2      43      37      4      1      44      38      
43      44      1      2      49      50      13      14      
44      43      37      38      80      79      73      74      
39      45      5      6      40      46      7      8      
45      43      2      5      51      49      14      15      
43      45      39      37      79      81      75      73      
40      46      7      8      41      47      9      10      
46      45      5      7      52      51      15      16      
45      46      40      39      81      82      76      75      
41      47      9      10      42      48      11      12      
47      46      7      9      53      52      16      17      
46      47      41      40      82      83      77      76      
48      47      9      11      54      53      17      18      
47      48      42      41      83      84      78      77      
49      50      13      14      55      56      19      20      
50      49      43      44      86      85      79      80      
51      49      14      15      57      55      20      21      
49      51      45      43      85      87      81      79      
52      51      15      16      58      57      21      22      
51      52      46      45      87      88      82      81      
53      52      16      17      59      58      22      23      
52      53      47      46      88      89      83      82      
54      53      17      18      60      59      23      24      
53      54      48      47      89      90      84      83      
55      56      19      20      61      62      25      26      
56      55      49      50      92      91      85      86      
57      55      20      21      63      61      26      27      
55      57      51      49      91      93      87      85      
58      57      21      22      64      63      27      28      
57      58      52      51      93      94      88      87      
59      58      22      23      65      64      28      29      
58      59      53      52      94      95      89      88      
60      59      23      24      66      65      29      30      
59      60      54      53      95      96      90      89      
61      62      25      26      67      68      31      32      
62      61      55      56      98      97      91      92      
63      61      26      27      69      67      32      33      
61      63      57      55      97      99      93      91      
64      63      27      28      70      69      33      34      
63      64      58      57      99      100      94      93      
65      64      28      29      71      70      34      35      
64      65      59      58      100      101      95      94      
66      65      29      30      72      71      35      36      
65      66      60      59      101      102      96      95      
68      67      61      62      104      103      97      98      
67      69      63      61      103      105      99      97      
69      70      64      63      105      106      100      99      
70      71      65      64      106      107      101      100      
71      72      66      65      107      108      102      101      
80      79      73      74      116      115      109      110      
79      81      75      73      115      117      111      109      
81      82      76      75      117      118      112      111      
82      83      77      76      118      119      113      112      
83      84      78      77      119      120      114      113      
86      85      79      80      122      121      115      116      
85      87      81      79      121      123      117      115      
87      88      82      81      123      124      118      117      
88      89      83      82      124      125      119      118      
89      90      84      83      125      126      120      119      
92      91      85      86      128      127      121      122      
91      93      87      85      127      129      123      121      
93      94      88      87      129      130      124      123      
94      95      89      88      130      131      125      124      
95      96      90      89      131      132      126      125      
98      97      91      92      134      133      127      128      
97      99      93      91      133      135      129      127      
99      100      94      93      135      136      130      129      
100      101      95      94      136      137      131      130      
101      102      96      95      137      138      132      131      
104      103      97      98      140      139      133      134      
103      105      99      97      139      141      135      133      
105      106      100      99      141      142      136      135      
106      107      101      100      142      143      137      136      
107      108      102      101      143      144      138      137      
116      115      109      110      152      151      145      146      