title = " tecplot file for process Mesh " 
variables = "x",  "y", "z", "cell_type" 
zone N = 443 E = 576 DATAPACKING = BLOCK,  VARLOCATION = ([4]=CELLCENTERED), ZONETYPE=FEBRICK 
-5.000000e-02     
-5.000000e-02     -5.000000e-02     -5.000000e-02     -5.000000e-02     -5.000000e-02     
-5.000000e-02     -5.000000e-02     -5.000000e-02     -5.000000e-02     -5.000000e-02     
-5.000000e-02     -5.000000e-02     -5.000000e-02     -1.000000e-01     -1.000000e-01     
-1.000000e-01     -1.000000e-01     -1.000000e-01     -1.000000e-01     -1.000000e-01     
-1.000000e-01     -1.000000e-01     -1.000000e-01     -1.000000e-01     -1.000000e-01     
-1.000000e-01     -1.000000e-01     -1.000000e-01     -1.000000e-01     -1.000000e-01     
-1.000000e-01     -1.000000e-01     -1.500000e-01     -1.500000e-01     -1.500000e-01     
-1.500000e-01     -1.500000e-01     -1.500000e-01     -1.500000e-01     -1.500000e-01     
-1.500000e-01     -1.500000e-01     -1.500000e-01     -1.500000e-01     -1.500000e-01     
-1.500000e-01     -1.500000e-01     -1.500000e-01     -1.500000e-01     -1.500000e-01     
-1.500000e-01     -1.500000e-01     -1.500000e-01     -1.500000e-01     -1.500000e-01     
-1.500000e-01     -1.500000e-01     -1.500000e-01     -1.500000e-01     -1.500000e-01     
-1.500000e-01     -1.500000e-01     -1.500000e-01     -1.500000e-01     -1.500000e-01     
-1.500000e-01     -1.500000e-01     -1.500000e-01     -1.500000e-01     -1.500000e-01     
-1.500000e-01     -1.500000e-01     -1.500000e-01     -2.000000e-01     -2.000000e-01     
-2.000000e-01     -2.000000e-01     -2.000000e-01     -2.000000e-01     -2.000000e-01     
-2.000000e-01     -2.000000e-01     -2.000000e-01     -2.000000e-01     -2.000000e-01     
-2.000000e-01     -2.000000e-01     -2.000000e-01     -2.000000e-01     -2.000000e-01     
-2.000000e-01     -2.000000e-01     -2.000000e-01     -2.000000e-01     -2.000000e-01     
-2.000000e-01     -2.000000e-01     -2.000000e-01     -2.000000e-01     -2.000000e-01     
-2.000000e-01     -2.000000e-01     -2.000000e-01     -2.000000e-01     -2.000000e-01     
-2.000000e-01     -2.000000e-01     -2.000000e-01     -2.000000e-01     -2.000000e-01     
-2.000000e-01     -2.000000e-01     -2.000000e-01     -2.500000e-01     -2.500000e-01     
-2.500000e-01     -2.500000e-01     -2.500000e-01     -2.500000e-01     -2.500000e-01     
-2.500000e-01     -2.500000e-01     -2.500000e-01     -2.500000e-01     -2.500000e-01     
-2.500000e-01     -2.500000e-01     -2.500000e-01     -2.500000e-01     -2.500000e-01     
-2.500000e-01     -2.500000e-01     -2.500000e-01     -2.500000e-01     -2.500000e-01     
-2.500000e-01     -2.500000e-01     -2.500000e-01     -2.500000e-01     -2.500000e-01     
-2.500000e-01     -2.500000e-01     -2.500000e-01     -2.500000e-01     -2.500000e-01     
-2.500000e-01     -2.500000e-01     -2.500000e-01     -2.500000e-01     -2.500000e-01     
-2.500000e-01     -2.500000e-01     -2.500000e-01     -2.500000e-01     -2.500000e-01     
-2.500000e-01     -2.500000e-01     -2.500000e-01     -3.000000e-01     -3.000000e-01     
-3.000000e-01     -3.000000e-01     -3.000000e-01     -3.000000e-01     -3.000000e-01     
-3.000000e-01     -3.000000e-01     -3.000000e-01     -3.000000e-01     -3.000000e-01     
-3.000000e-01     -3.000000e-01     -3.000000e-01     -3.000000e-01     -3.000000e-01     
-3.000000e-01     -3.000000e-01     -3.000000e-01     -3.000000e-01     -3.000000e-01     
-3.000000e-01     -3.000000e-01     -3.000000e-01     -3.000000e-01     -3.000000e-01     
-3.000000e-01     -3.000000e-01     -3.000000e-01     -3.000000e-01     -3.000000e-01     
-3.000000e-01     -3.000000e-01     -3.000000e-01     -3.000000e-01     -3.000000e-01     
-3.000000e-01     -3.000000e-01     -3.000000e-01     -3.000000e-01     -3.000000e-01     
-3.000000e-01     -3.000000e-01     -3.000000e-01     -3.000000e-01     -3.000000e-01     
-3.500000e-01     -3.500000e-01     -3.500000e-01     -3.500000e-01     -3.500000e-01     
-3.500000e-01     -3.500000e-01     -3.500000e-01     -3.500000e-01     -3.500000e-01     
-3.500000e-01     -3.500000e-01     -3.500000e-01     -3.500000e-01     -3.500000e-01     
-3.500000e-01     -3.500000e-01     -3.500000e-01     -3.500000e-01     -3.500000e-01     
-3.500000e-01     -3.500000e-01     -3.500000e-01     -3.500000e-01     -3.500000e-01     
-3.500000e-01     -3.500000e-01     -3.500000e-01     -3.500000e-01     -3.500000e-01     
-3.500000e-01     -3.500000e-01     -3.500000e-01     -3.500000e-01     -3.500000e-01     
-3.500000e-01     -3.500000e-01     -3.500000e-01     -3.500000e-01     -3.500000e-01     
-3.500000e-01     -3.500000e-01     -3.500000e-01     -3.500000e-01     -3.500000e-01     
-3.500000e-01     -3.500000e-01     -3.500000e-01     -3.500000e-01     -3.500000e-01     
-3.500000e-01     -3.500000e-01     -4.000000e-01     -4.000000e-01     -4.000000e-01     
-4.000000e-01     -4.000000e-01     -4.000000e-01     -4.000000e-01     -4.000000e-01     
-4.000000e-01     -4.000000e-01     -4.000000e-01     -4.000000e-01     -4.000000e-01     
-4.000000e-01     -4.000000e-01     -4.000000e-01     -4.000000e-01     -4.000000e-01     
-4.000000e-01     -4.000000e-01     -4.000000e-01     -4.000000e-01     -4.000000e-01     
-4.000000e-01     -4.000000e-01     -4.000000e-01     -4.000000e-01     -4.000000e-01     
-4.000000e-01     -4.000000e-01     -4.000000e-01     -4.000000e-01     -4.000000e-01     
-4.000000e-01     -4.000000e-01     -4.000000e-01     -4.000000e-01     -4.000000e-01     
-4.000000e-01     -4.000000e-01     -4.000000e-01     -4.000000e-01     -4.000000e-01     
-4.000000e-01     -4.000000e-01     -4.000000e-01     -4.000000e-01     -4.000000e-01     
-4.000000e-01     -4.000000e-01     -4.000000e-01     -4.000000e-01     -4.000000e-01     
-4.000000e-01     -4.000000e-01     -4.000000e-01     -4.000000e-01     -4.000000e-01     
-4.000000e-01     -4.000000e-01     -4.000000e-01     -4.000000e-01     -4.500000e-01     
-4.500000e-01     -4.500000e-01     -4.500000e-01     -4.500000e-01     -4.500000e-01     
-4.500000e-01     -4.500000e-01     -4.500000e-01     -4.500000e-01     -4.500000e-01     
-4.500000e-01     -4.500000e-01     -4.500000e-01     -4.500000e-01     -4.500000e-01     
-4.500000e-01     -4.500000e-01     -4.500000e-01     -4.500000e-01     -4.500000e-01     
-4.500000e-01     -4.500000e-01     -4.500000e-01     -4.500000e-01     -4.500000e-01     
-4.500000e-01     -4.500000e-01     -4.500000e-01     -4.500000e-01     -4.500000e-01     
-4.500000e-01     -4.500000e-01     -4.500000e-01     -4.500000e-01     -4.500000e-01     
-4.500000e-01     -4.500000e-01     -4.500000e-01     -4.500000e-01     -4.500000e-01     
-4.500000e-01     -4.500000e-01     -4.500000e-01     -4.500000e-01     -4.500000e-01     
-4.500000e-01     -4.500000e-01     -4.500000e-01     -4.500000e-01     -4.500000e-01     
-4.500000e-01     -4.500000e-01     -4.500000e-01     -4.500000e-01     -4.500000e-01     
-4.500000e-01     -4.500000e-01     -4.500000e-01     -4.500000e-01     -4.500000e-01     
-4.500000e-01     -5.000000e-01     -5.000000e-01     -5.000000e-01     -5.000000e-01     
-5.000000e-01     -5.000000e-01     -5.000000e-01     -5.000000e-01     -5.000000e-01     
-5.000000e-01     -5.000000e-01     -5.000000e-01     -5.000000e-01     -5.000000e-01     
-5.000000e-01     -5.000000e-01     -5.000000e-01     -5.000000e-01     -5.000000e-01     
-5.000000e-01     -5.000000e-01     -5.000000e-01     -5.000000e-01     -5.000000e-01     
-5.000000e-01     -5.000000e-01     -5.000000e-01     -5.000000e-01     -5.000000e-01     
-5.000000e-01     -5.000000e-01     -5.000000e-01     -5.000000e-01     -5.000000e-01     
-5.000000e-01     -5.000000e-01     -5.000000e-01     -5.000000e-01     -5.000000e-01     
-5.000000e-01     -5.000000e-01     -5.000000e-01     -5.000000e-01     -5.000000e-01     
-5.000000e-01     -5.000000e-01     -5.000000e-01     -5.000000e-01     -5.000000e-01     
-5.000000e-01     -5.000000e-01     -5.000000e-01     -5.000000e-01     -5.000000e-01     
-5.000000e-01     -5.000000e-01     -5.000000e-01     -5.000000e-01     -5.000000e-01     
-5.000000e-01     -5.000000e-01     
-2.000000e-01     
-1.500000e-01     -1.500000e-01     -2.000000e-01     -1.000000e-01     -1.000000e-01     
-4.000000e-01     -3.500000e-01     -3.500000e-01     -4.000000e-01     -2.000000e-01     
-1.500000e-01     -4.000000e-01     -3.500000e-01     -3.500000e-01     -4.000000e-01     
-2.000000e-01     -2.000000e-01     -2.500000e-01     -2.500000e-01     -1.500000e-01     
-1.500000e-01     -1.000000e-01     -1.000000e-01     -4.000000e-01     -3.500000e-01     
-2.000000e-01     -2.500000e-01     -1.500000e-01     -4.000000e-01     -3.500000e-01     
-4.000000e-01     -3.500000e-01     -5.000000e-01     -4.500000e-01     -4.500000e-01     
-5.000000e-01     -4.000000e-01     -4.000000e-01     -3.500000e-01     -3.500000e-01     
-3.000000e-01     -3.000000e-01     -2.500000e-01     -2.500000e-01     -2.000000e-01     
-2.000000e-01     -1.500000e-01     -1.500000e-01     -5.000000e-01     -4.500000e-01     
-4.000000e-01     -3.500000e-01     -3.000000e-01     -2.500000e-01     -2.000000e-01     
-1.500000e-01     -5.000000e-01     -4.500000e-01     -4.000000e-01     -3.500000e-01     
-3.000000e-01     -2.500000e-01     -2.000000e-01     -1.500000e-01     -5.000000e-01     
-4.500000e-01     -4.000000e-01     -3.500000e-01     -2.500000e-01     -2.000000e-01     
-1.500000e-01     -2.500000e-01     -2.000000e-01     -4.500000e-01     -4.500000e-01     
-5.000000e-01     -5.000000e-01     -4.000000e-01     -4.000000e-01     -3.500000e-01     
-3.500000e-01     -3.000000e-01     -3.000000e-01     -2.500000e-01     -2.500000e-01     
-2.000000e-01     -2.000000e-01     -1.500000e-01     -1.500000e-01     -4.500000e-01     
-5.000000e-01     -4.000000e-01     -3.500000e-01     -3.000000e-01     -2.500000e-01     
-2.000000e-01     -1.500000e-01     -4.500000e-01     -5.000000e-01     -4.000000e-01     
-3.500000e-01     -3.000000e-01     -2.500000e-01     -2.000000e-01     -1.500000e-01     
-4.500000e-01     -5.000000e-01     -4.000000e-01     -2.500000e-01     -2.000000e-01     
-1.500000e-01     -2.500000e-01     -2.000000e-01     -4.500000e-01     -4.500000e-01     
-5.000000e-01     -5.000000e-01     -4.000000e-01     -4.000000e-01     -3.500000e-01     
-3.500000e-01     -3.000000e-01     -3.000000e-01     -2.500000e-01     -2.500000e-01     
-2.000000e-01     -2.000000e-01     -1.500000e-01     -1.500000e-01     -4.500000e-01     
-5.000000e-01     -4.000000e-01     -3.500000e-01     -3.000000e-01     -2.500000e-01     
-2.000000e-01     -1.500000e-01     -4.500000e-01     -5.000000e-01     -4.000000e-01     
-3.500000e-01     -3.000000e-01     -2.500000e-01     -2.000000e-01     -1.500000e-01     
-4.500000e-01     -5.000000e-01     -4.000000e-01     -3.500000e-01     -3.000000e-01     
-2.500000e-01     -2.000000e-01     -5.000000e-01     -4.500000e-01     -4.000000e-01     
-3.500000e-01     -2.500000e-01     -2.000000e-01     -4.500000e-01     -4.500000e-01     
-5.000000e-01     -5.000000e-01     -4.000000e-01     -4.000000e-01     -3.500000e-01     
-3.500000e-01     -3.000000e-01     -3.000000e-01     -2.500000e-01     -2.500000e-01     
-2.000000e-01     -2.000000e-01     -1.500000e-01     -1.500000e-01     -1.000000e-01     
-1.000000e-01     -4.500000e-01     -5.000000e-01     -4.000000e-01     -3.500000e-01     
-3.000000e-01     -2.500000e-01     -2.000000e-01     -1.500000e-01     -1.000000e-01     
-4.500000e-01     -5.000000e-01     -4.000000e-01     -3.500000e-01     -3.000000e-01     
-2.500000e-01     -2.000000e-01     -1.500000e-01     -1.000000e-01     -4.500000e-01     
-5.000000e-01     -4.000000e-01     -3.500000e-01     -3.000000e-01     -2.500000e-01     
-2.000000e-01     -4.500000e-01     -5.000000e-01     -4.000000e-01     -3.500000e-01     
-4.500000e-01     -4.500000e-01     -5.000000e-01     -5.000000e-01     -4.000000e-01     
-4.000000e-01     -3.500000e-01     -3.500000e-01     -3.000000e-01     -3.000000e-01     
-2.500000e-01     -2.500000e-01     -2.000000e-01     -2.000000e-01     -1.500000e-01     
-1.500000e-01     -1.000000e-01     -1.000000e-01     -4.500000e-01     -5.000000e-01     
-4.000000e-01     -3.500000e-01     -3.000000e-01     -2.500000e-01     -2.000000e-01     
-1.500000e-01     -1.000000e-01     -4.500000e-01     -5.000000e-01     -4.000000e-01     
-3.500000e-01     -3.000000e-01     -2.500000e-01     -2.000000e-01     -1.500000e-01     
-1.000000e-01     -4.500000e-01     -5.000000e-01     -4.000000e-01     -3.500000e-01     
-3.000000e-01     -2.500000e-01     -4.500000e-01     -5.000000e-01     -4.000000e-01     
-3.500000e-01     -3.000000e-01     -5.000000e-01     -4.500000e-01     -4.000000e-01     
-3.500000e-01     -3.000000e-01     -4.500000e-01     -4.500000e-01     -5.000000e-01     
-5.000000e-01     -4.000000e-01     -4.000000e-01     -3.500000e-01     -3.500000e-01     
-3.000000e-01     -3.000000e-01     -2.500000e-01     -2.500000e-01     -2.000000e-01     
-2.000000e-01     -1.500000e-01     -1.500000e-01     -4.500000e-01     -5.000000e-01     
-4.000000e-01     -3.500000e-01     -3.000000e-01     -2.500000e-01     -2.000000e-01     
-1.500000e-01     -4.500000e-01     -5.000000e-01     -4.000000e-01     -3.500000e-01     
-3.000000e-01     -2.500000e-01     -2.000000e-01     -1.500000e-01     -4.500000e-01     
-5.000000e-01     -4.000000e-01     -3.500000e-01     -3.000000e-01     -2.500000e-01     
-4.500000e-01     -5.000000e-01     -4.000000e-01     -3.500000e-01     -3.000000e-01     
-4.500000e-01     -5.000000e-01     -4.000000e-01     -3.500000e-01     -3.000000e-01     
-5.000000e-01     -4.500000e-01     -4.000000e-01     -3.500000e-01     -3.000000e-01     
-5.000000e-01     -4.500000e-01     -4.000000e-01     -3.500000e-01     -3.000000e-01     
-5.000000e-01     -4.500000e-01     -4.000000e-01     -3.500000e-01     -4.500000e-01     
-4.500000e-01     -5.000000e-01     -5.000000e-01     -4.000000e-01     -4.000000e-01     
-3.500000e-01     -3.500000e-01     -3.000000e-01     -3.000000e-01     -2.500000e-01     
-2.500000e-01     -2.000000e-01     -2.000000e-01     -1.500000e-01     -1.500000e-01     
-4.500000e-01     -5.000000e-01     -4.000000e-01     -3.500000e-01     -3.000000e-01     
-2.500000e-01     -2.000000e-01     -1.500000e-01     -4.500000e-01     -5.000000e-01     
-4.000000e-01     -3.500000e-01     -3.000000e-01     -2.500000e-01     -2.000000e-01     
-1.500000e-01     -4.500000e-01     -5.000000e-01     -4.000000e-01     -3.500000e-01     
-3.000000e-01     -2.500000e-01     -4.500000e-01     -5.000000e-01     -4.000000e-01     
-3.500000e-01     -3.000000e-01     -4.500000e-01     -5.000000e-01     -4.000000e-01     
-3.500000e-01     -3.000000e-01     -4.500000e-01     -5.000000e-01     -4.000000e-01     
-3.500000e-01     -3.000000e-01     -4.500000e-01     -5.000000e-01     -4.000000e-01     
-3.500000e-01     -3.000000e-01     -4.500000e-01     -5.000000e-01     -4.000000e-01     
-3.500000e-01     -4.500000e-01     -4.500000e-01     -5.000000e-01     -4.000000e-01     
-4.000000e-01     -3.500000e-01     -3.500000e-01     -3.000000e-01     -3.000000e-01     
-2.500000e-01     -2.500000e-01     -2.000000e-01     -2.000000e-01     -1.500000e-01     
-1.500000e-01     -4.500000e-01     -5.000000e-01     -4.000000e-01     -3.500000e-01     
-3.000000e-01     -2.500000e-01     -2.000000e-01     -1.500000e-01     -4.500000e-01     
-5.000000e-01     -4.000000e-01     -3.500000e-01     -3.000000e-01     -2.500000e-01     
-2.000000e-01     -1.500000e-01     -4.500000e-01     -5.000000e-01     -4.000000e-01     
-3.500000e-01     -3.000000e-01     -4.500000e-01     -5.000000e-01     -4.000000e-01     
-3.500000e-01     -3.000000e-01     -4.500000e-01     -5.000000e-01     -4.000000e-01     
-3.500000e-01     -3.000000e-01     -4.500000e-01     -5.000000e-01     -4.000000e-01     
-3.500000e-01     -3.000000e-01     -4.500000e-01     -5.000000e-01     -4.000000e-01     
-3.500000e-01     -3.000000e-01     -4.500000e-01     -5.000000e-01     -4.000000e-01     
-3.500000e-01     -5.000000e-01     
4.500000e-01     
4.500000e-01     5.000000e-01     5.000000e-01     4.500000e-01     5.000000e-01     
4.000000e-01     4.000000e-01     4.500000e-01     4.500000e-01     4.000000e-01     
4.000000e-01     3.500000e-01     3.500000e-01     4.500000e-01     4.500000e-01     
5.000000e-01     4.500000e-01     4.500000e-01     5.000000e-01     5.000000e-01     
4.500000e-01     5.000000e-01     4.500000e-01     4.000000e-01     4.000000e-01     
4.000000e-01     4.000000e-01     4.000000e-01     3.500000e-01     3.500000e-01     
3.000000e-01     3.000000e-01     4.500000e-01     4.500000e-01     5.000000e-01     
5.000000e-01     4.500000e-01     5.000000e-01     4.500000e-01     5.000000e-01     
4.500000e-01     5.000000e-01     5.000000e-01     4.500000e-01     5.000000e-01     
4.500000e-01     5.000000e-01     4.500000e-01     4.000000e-01     4.000000e-01     
4.000000e-01     4.000000e-01     4.000000e-01     4.000000e-01     4.000000e-01     
4.000000e-01     3.500000e-01     3.500000e-01     3.500000e-01     3.500000e-01     
3.500000e-01     3.500000e-01     3.500000e-01     3.500000e-01     3.000000e-01     
3.000000e-01     3.000000e-01     3.000000e-01     3.000000e-01     3.000000e-01     
3.000000e-01     2.500000e-01     2.500000e-01     5.000000e-01     4.500000e-01     
4.500000e-01     5.000000e-01     5.000000e-01     4.500000e-01     5.000000e-01     
4.500000e-01     5.000000e-01     4.500000e-01     5.000000e-01     4.500000e-01     
5.000000e-01     4.500000e-01     5.000000e-01     4.500000e-01     4.000000e-01     
4.000000e-01     4.000000e-01     4.000000e-01     4.000000e-01     4.000000e-01     
4.000000e-01     4.000000e-01     3.500000e-01     3.500000e-01     3.500000e-01     
3.500000e-01     3.500000e-01     3.500000e-01     3.500000e-01     3.500000e-01     
3.000000e-01     3.000000e-01     3.000000e-01     3.000000e-01     3.000000e-01     
3.000000e-01     2.500000e-01     2.500000e-01     5.000000e-01     4.500000e-01     
4.500000e-01     5.000000e-01     5.000000e-01     4.500000e-01     5.000000e-01     
4.500000e-01     5.000000e-01     4.500000e-01     5.000000e-01     4.500000e-01     
5.000000e-01     4.500000e-01     5.000000e-01     4.500000e-01     4.000000e-01     
4.000000e-01     4.000000e-01     4.000000e-01     4.000000e-01     4.000000e-01     
4.000000e-01     4.000000e-01     3.500000e-01     3.500000e-01     3.500000e-01     
3.500000e-01     3.500000e-01     3.500000e-01     3.500000e-01     3.500000e-01     
3.000000e-01     3.000000e-01     3.000000e-01     3.000000e-01     3.000000e-01     
3.000000e-01     3.000000e-01     2.500000e-01     2.500000e-01     2.500000e-01     
2.500000e-01     2.500000e-01     2.500000e-01     5.000000e-01     4.500000e-01     
4.500000e-01     5.000000e-01     5.000000e-01     4.500000e-01     5.000000e-01     
4.500000e-01     5.000000e-01     4.500000e-01     5.000000e-01     4.500000e-01     
5.000000e-01     4.500000e-01     5.000000e-01     4.500000e-01     4.500000e-01     
5.000000e-01     4.000000e-01     4.000000e-01     4.000000e-01     4.000000e-01     
4.000000e-01     4.000000e-01     4.000000e-01     4.000000e-01     4.000000e-01     
3.500000e-01     3.500000e-01     3.500000e-01     3.500000e-01     3.500000e-01     
3.500000e-01     3.500000e-01     3.500000e-01     3.500000e-01     3.000000e-01     
3.000000e-01     3.000000e-01     3.000000e-01     3.000000e-01     3.000000e-01     
3.000000e-01     2.500000e-01     2.500000e-01     2.500000e-01     2.500000e-01     
5.000000e-01     4.500000e-01     4.500000e-01     5.000000e-01     5.000000e-01     
4.500000e-01     5.000000e-01     4.500000e-01     5.000000e-01     4.500000e-01     
5.000000e-01     4.500000e-01     5.000000e-01     4.500000e-01     5.000000e-01     
4.500000e-01     5.000000e-01     4.500000e-01     4.000000e-01     4.000000e-01     
4.000000e-01     4.000000e-01     4.000000e-01     4.000000e-01     4.000000e-01     
4.000000e-01     4.000000e-01     3.500000e-01     3.500000e-01     3.500000e-01     
3.500000e-01     3.500000e-01     3.500000e-01     3.500000e-01     3.500000e-01     
3.500000e-01     3.000000e-01     3.000000e-01     3.000000e-01     3.000000e-01     
3.000000e-01     3.000000e-01     2.500000e-01     2.500000e-01     2.500000e-01     
2.500000e-01     2.500000e-01     2.000000e-01     2.000000e-01     2.000000e-01     
2.000000e-01     2.000000e-01     5.000000e-01     4.500000e-01     4.500000e-01     
5.000000e-01     5.000000e-01     4.500000e-01     5.000000e-01     4.500000e-01     
5.000000e-01     4.500000e-01     5.000000e-01     4.500000e-01     5.000000e-01     
4.500000e-01     5.000000e-01     4.500000e-01     4.000000e-01     4.000000e-01     
4.000000e-01     4.000000e-01     4.000000e-01     4.000000e-01     4.000000e-01     
4.000000e-01     3.500000e-01     3.500000e-01     3.500000e-01     3.500000e-01     
3.500000e-01     3.500000e-01     3.500000e-01     3.500000e-01     3.000000e-01     
3.000000e-01     3.000000e-01     3.000000e-01     3.000000e-01     3.000000e-01     
2.500000e-01     2.500000e-01     2.500000e-01     2.500000e-01     2.500000e-01     
2.000000e-01     2.000000e-01     2.000000e-01     2.000000e-01     2.000000e-01     
1.500000e-01     1.500000e-01     1.500000e-01     1.500000e-01     1.500000e-01     
1.000000e-01     1.000000e-01     1.000000e-01     1.000000e-01     1.000000e-01     
5.000000e-02     5.000000e-02     5.000000e-02     5.000000e-02     5.000000e-01     
4.500000e-01     4.500000e-01     5.000000e-01     5.000000e-01     4.500000e-01     
5.000000e-01     4.500000e-01     5.000000e-01     4.500000e-01     5.000000e-01     
4.500000e-01     5.000000e-01     4.500000e-01     5.000000e-01     4.500000e-01     
4.000000e-01     4.000000e-01     4.000000e-01     4.000000e-01     4.000000e-01     
4.000000e-01     4.000000e-01     4.000000e-01     3.500000e-01     3.500000e-01     
3.500000e-01     3.500000e-01     3.500000e-01     3.500000e-01     3.500000e-01     
3.500000e-01     3.000000e-01     3.000000e-01     3.000000e-01     3.000000e-01     
3.000000e-01     3.000000e-01     2.500000e-01     2.500000e-01     2.500000e-01     
2.500000e-01     2.500000e-01     2.000000e-01     2.000000e-01     2.000000e-01     
2.000000e-01     2.000000e-01     1.500000e-01     1.500000e-01     1.500000e-01     
1.500000e-01     1.500000e-01     1.000000e-01     1.000000e-01     1.000000e-01     
1.000000e-01     1.000000e-01     5.000000e-02     5.000000e-02     5.000000e-02     
5.000000e-02     5.000000e-01     4.500000e-01     4.500000e-01     5.000000e-01     
4.500000e-01     5.000000e-01     4.500000e-01     5.000000e-01     4.500000e-01     
5.000000e-01     4.500000e-01     5.000000e-01     4.500000e-01     5.000000e-01     
4.500000e-01     4.000000e-01     4.000000e-01     4.000000e-01     4.000000e-01     
4.000000e-01     4.000000e-01     4.000000e-01     4.000000e-01     3.500000e-01     
3.500000e-01     3.500000e-01     3.500000e-01     3.500000e-01     3.500000e-01     
3.500000e-01     3.500000e-01     3.000000e-01     3.000000e-01     3.000000e-01     
3.000000e-01     3.000000e-01     2.500000e-01     2.500000e-01     2.500000e-01     
2.500000e-01     2.500000e-01     2.000000e-01     2.000000e-01     2.000000e-01     
2.000000e-01     2.000000e-01     1.500000e-01     1.500000e-01     1.500000e-01     
1.500000e-01     1.500000e-01     1.000000e-01     1.000000e-01     1.000000e-01     
1.000000e-01     1.000000e-01     5.000000e-02     5.000000e-02     5.000000e-02     
5.000000e-02     5.000000e-01     

0      
0      0      0      0      0      0      0      0      0      0      
0      0      0      0      0      0      0      0      0      0      
0      0      0      0      0      0      0      0      0      0      
0      0      0      0      0      0      0      0      0      0      
0      0      0      0      0      0      0      0      0      0      
0      0      0      0      0      0      0      0      0      0      
0      0      0      0      0      0      0      0      0      0      
0      0      0      0      0      0      0      0      0      0      
0      0      0      0      0      0      0      0      0      0      
0      0      0      0      0      0      0      0      0      0      
0      0      0      0      0      0      0      0      0      0      
0      0      0      0      0      0      0      0      0      0      
0      0      0      0      0      0      0      0      0      0      
0      0      0      0      0      0      0      0      0      0      
0      0      0      0      0      0      0      0      0      0      
0      0      0      0      0      0      0      0      0      0      
0      0      0      0      0      0      0      0      0      0      
0      0      0      0      0      0      0      0      0      0      
0      0      0      0      0      0      0      0      0      0      
0      0      0      0      0      0      0      0      0      0      
0      0      0      0      0      0      0      0      0      0      
0      0      0      0      0      0      0      0      0      0      
0      0      0      0      0      0      0      0      0      0      
0      0      0      0      0      0      0      0      0      0      
0      0      0      0      0      0      0      1      1      1      
1      1      1      1      1      1      1      1      1      1      
1      1      1      1      1      1      1      1      1      1      
1      1      1      1      1      1      1      1      1      1      
1      1      1      1      1      1      1      1      1      1      
1      1      1      1      1      1      1      1      1      1      
1      1      1      1      1      1      1      1      1      1      
1      1      1      1      1      1      1      1      1      1      
1      1      1      1      1      1      1      1      1      1      
1      1      1      1      1      1      1      1      1      1      
1      1      1      1      1      1      1      1      1      1      
1      1      1      1      1      1      1      1      1      1      
1      1      1      1      1      1      1      1      1      1      
1      1      1      1      1      1      1      1      1      1      
1      1      1      1      1      1      1      1      1      1      
1      1      1      1      1      1      1      1      1      1      
1      1      1      1      1      1      1      1      1      1      
1      1      1      1      1      1      1      1      1      1      
1      1      1      1      1      1      1      1      1      1      
1      1      1      1      1      1      1      1      1      1      
1      1      1      1      1      1      1      1      1      1      
1      1      1      1      1      1      1      1      1      1      
1      1      1      1      1      1      1      1      1      1      
1      1      1      1      1      1      1      1      1      1      
1      1      1      1      1      1      1      1      1      1      
1      1      1      1      1      1      1      1      1      1      
1      1      1      1      1      1      1      1      1      1      
1      1      1      1      1      1      1      1      1      1      
1      1      1      1      1      1      1      1      1      1      
1      1      1      1      1      1      1      1      1      1      
1      1      1      1      1      1      1      1      1      1      
1      1      1      1      1      1      1      1      1      1      
1      1      1      1      1      1      1      1      1      1      
1      1      1      1      1      

21      22      2      3      23      24      5      6      
3      2      22      21      4      1      18      17      
22      18      1      2      29      27      11      12      
18      22      21      17      47      49      48      46      
26      25      7      8      31      30      13      14      
8      7      25      26      9      10      16      15      
25      26      15      16      52      53      40      38      
27      29      22      18      56      57      49      47      
30      31      26      25      60      61      53      52      
17      18      47      46      20      19      45      44      
47      45      19      18      56      55      28      27      
45      47      46      44      86      88      87      85      
47      49      48      46      88      90      89      87      
52      53      40      38      93      94      82      80      
55      56      47      45      96      97      88      86      
56      57      49      47      97      98      90      88      
61      60      30      31      69      68      32      33      
60      61      53      52      101      102      94      93      
75      76      35      36      79      80      38      39      
36      35      76      75      37      34      77      78      
76      77      34      35      91      92      50      51      
77      76      75      78      117      116      115      118      
79      80      38      39      81      82      40      41      
80      76      35      38      93      91      51      52      
76      80      79      75      116      120      119      115      
81      82      40      41      83      84      42      43      
80      82      81      79      120      122      121      119      
83      84      42      43      85      86      45      44      
84      82      40      42      95      94      53      54      
82      84      83      81      122      124      123      121      