title = " tecplot file for process Mesh " 
variables = "x",  "y", "z", "cell_type" 
zone N = 426 E = 552 DATAPACKING = BLOCK,  VARLOCATION = ([4]=CELLCENTERED), ZONETYPE=FEBRICK 
-1.000000e-01     
-1.000000e-01     -1.000000e-01     -1.000000e-01     -1.000000e-01     -1.000000e-01     
-1.000000e-01     -1.000000e-01     -1.000000e-01     -1.000000e-01     -1.000000e-01     
-1.000000e-01     -1.000000e-01     -1.000000e-01     -1.000000e-01     -1.000000e-01     
-1.000000e-01     -1.000000e-01     -1.000000e-01     -1.000000e-01     -1.000000e-01     
-1.000000e-01     -1.000000e-01     -1.000000e-01     -1.000000e-01     -1.000000e-01     
-1.000000e-01     -1.000000e-01     -1.500000e-01     -1.500000e-01     -1.500000e-01     
-1.500000e-01     -1.500000e-01     -1.500000e-01     -1.500000e-01     -1.500000e-01     
-1.500000e-01     -1.500000e-01     -1.500000e-01     -1.500000e-01     -1.500000e-01     
-1.500000e-01     -1.500000e-01     -1.500000e-01     -1.500000e-01     -1.500000e-01     
-1.500000e-01     -1.500000e-01     -1.500000e-01     -1.500000e-01     -1.500000e-01     
-1.500000e-01     -1.500000e-01     -1.500000e-01     -1.500000e-01     -1.500000e-01     
-1.500000e-01     -1.500000e-01     -1.500000e-01     -1.500000e-01     -1.500000e-01     
-1.500000e-01     -1.500000e-01     -1.500000e-01     -1.500000e-01     -1.500000e-01     
-1.500000e-01     -1.500000e-01     -1.500000e-01     -1.500000e-01     -1.500000e-01     
-1.500000e-01     -1.500000e-01     -1.500000e-01     -1.500000e-01     -1.500000e-01     
-1.500000e-01     -1.500000e-01     -1.500000e-01     -1.500000e-01     -1.500000e-01     
-1.500000e-01     -1.500000e-01     -1.500000e-01     -1.500000e-01     -2.000000e-01     
-2.000000e-01     -2.000000e-01     -2.000000e-01     -2.000000e-01     -2.000000e-01     
-2.000000e-01     -2.000000e-01     -2.000000e-01     -2.000000e-01     -2.000000e-01     
-2.000000e-01     -2.000000e-01     -2.000000e-01     -2.000000e-01     -2.000000e-01     
-2.000000e-01     -2.000000e-01     -2.000000e-01     -2.000000e-01     -2.000000e-01     
-2.000000e-01     -2.000000e-01     -2.000000e-01     -2.000000e-01     -2.000000e-01     
-2.000000e-01     -2.000000e-01     -2.000000e-01     -2.000000e-01     -2.000000e-01     
-2.000000e-01     -2.000000e-01     -2.000000e-01     -2.000000e-01     -2.000000e-01     
-2.000000e-01     -2.000000e-01     -2.000000e-01     -2.000000e-01     -2.000000e-01     
-2.000000e-01     -2.000000e-01     -2.000000e-01     -2.000000e-01     -2.000000e-01     
-2.000000e-01     -2.000000e-01     -2.000000e-01     -2.000000e-01     -2.000000e-01     
-2.000000e-01     -2.000000e-01     -2.000000e-01     -2.000000e-01     -2.000000e-01     
-2.000000e-01     -2.000000e-01     -2.000000e-01     -2.000000e-01     -2.000000e-01     
-2.000000e-01     -2.000000e-01     -2.000000e-01     -2.500000e-01     -2.500000e-01     
-2.500000e-01     -2.500000e-01     -2.500000e-01     -2.500000e-01     -2.500000e-01     
-2.500000e-01     -2.500000e-01     -2.500000e-01     -2.500000e-01     -2.500000e-01     
-2.500000e-01     -2.500000e-01     -2.500000e-01     -2.500000e-01     -2.500000e-01     
-2.500000e-01     -2.500000e-01     -2.500000e-01     -2.500000e-01     -2.500000e-01     
-2.500000e-01     -2.500000e-01     -2.500000e-01     -2.500000e-01     -2.500000e-01     
-2.500000e-01     -2.500000e-01     -2.500000e-01     -2.500000e-01     -2.500000e-01     
-2.500000e-01     -2.500000e-01     -2.500000e-01     -2.500000e-01     -2.500000e-01     
-2.500000e-01     -2.500000e-01     -2.500000e-01     -2.500000e-01     -2.500000e-01     
-2.500000e-01     -2.500000e-01     -2.500000e-01     -2.500000e-01     -2.500000e-01     
-2.500000e-01     -2.500000e-01     -2.500000e-01     -2.500000e-01     -2.500000e-01     
-2.500000e-01     -2.500000e-01     -2.500000e-01     -2.500000e-01     -2.500000e-01     
-2.500000e-01     -2.500000e-01     -2.500000e-01     -2.500000e-01     -2.500000e-01     
-2.500000e-01     -2.500000e-01     -3.000000e-01     -3.000000e-01     -3.000000e-01     
-3.000000e-01     -3.000000e-01     -3.000000e-01     -3.000000e-01     -3.000000e-01     
-3.000000e-01     -3.000000e-01     -3.000000e-01     -3.000000e-01     -3.000000e-01     
-3.000000e-01     -3.000000e-01     -3.000000e-01     -3.000000e-01     -3.000000e-01     
-3.000000e-01     -3.000000e-01     -3.000000e-01     -3.000000e-01     -3.000000e-01     
-3.000000e-01     -3.000000e-01     -3.000000e-01     -3.000000e-01     -3.000000e-01     
-3.000000e-01     -3.000000e-01     -3.000000e-01     -3.000000e-01     -3.000000e-01     
-3.000000e-01     -3.000000e-01     -3.000000e-01     -3.000000e-01     -3.000000e-01     
-3.000000e-01     -3.000000e-01     -3.000000e-01     -3.000000e-01     -3.000000e-01     
-3.000000e-01     -3.000000e-01     -3.000000e-01     -3.000000e-01     -3.000000e-01     
-3.000000e-01     -3.000000e-01     -3.000000e-01     -3.000000e-01     -3.000000e-01     
-3.000000e-01     -3.000000e-01     -3.000000e-01     -3.000000e-01     -3.000000e-01     
-3.000000e-01     -3.000000e-01     -3.000000e-01     -3.000000e-01     -3.000000e-01     
-3.500000e-01     -3.500000e-01     -3.500000e-01     -3.500000e-01     -3.500000e-01     
-3.500000e-01     -3.500000e-01     -3.500000e-01     -3.500000e-01     -3.500000e-01     
-3.500000e-01     -3.500000e-01     -3.500000e-01     -3.500000e-01     -3.500000e-01     
-3.500000e-01     -3.500000e-01     -3.500000e-01     -3.500000e-01     -3.500000e-01     
-3.500000e-01     -3.500000e-01     -3.500000e-01     -3.500000e-01     -3.500000e-01     
-3.500000e-01     -3.500000e-01     -3.500000e-01     -3.500000e-01     -3.500000e-01     
-3.500000e-01     -3.500000e-01     -3.500000e-01     -3.500000e-01     -3.500000e-01     
-3.500000e-01     -3.500000e-01     -3.500000e-01     -3.500000e-01     -3.500000e-01     
-3.500000e-01     -3.500000e-01     -3.500000e-01     -3.500000e-01     -3.500000e-01     
-3.500000e-01     -3.500000e-01     -3.500000e-01     -3.500000e-01     -3.500000e-01     
-3.500000e-01     -3.500000e-01     -3.500000e-01     -3.500000e-01     -4.000000e-01     
-4.000000e-01     -4.000000e-01     -4.000000e-01     -4.000000e-01     -4.000000e-01     
-4.000000e-01     -4.000000e-01     -4.000000e-01     -4.000000e-01     -4.000000e-01     
-4.000000e-01     -4.000000e-01     -4.000000e-01     -4.000000e-01     -4.000000e-01     
-4.000000e-01     -4.000000e-01     -4.000000e-01     -4.000000e-01     -4.000000e-01     
-4.000000e-01     -4.000000e-01     -4.000000e-01     -4.000000e-01     -4.000000e-01     
-4.000000e-01     -4.000000e-01     -4.000000e-01     -4.000000e-01     -4.000000e-01     
-4.000000e-01     -4.000000e-01     -4.000000e-01     -4.000000e-01     -4.000000e-01     
-4.000000e-01     -4.000000e-01     -4.500000e-01     -4.500000e-01     -4.500000e-01     
-4.500000e-01     -4.500000e-01     -4.500000e-01     -4.500000e-01     -4.500000e-01     
-4.500000e-01     -4.500000e-01     -4.500000e-01     -4.500000e-01     -4.500000e-01     
-4.500000e-01     -4.500000e-01     -4.500000e-01     -4.500000e-01     -4.500000e-01     
-4.500000e-01     -4.500000e-01     -4.500000e-01     -4.500000e-01     -4.500000e-01     
-4.500000e-01     -4.500000e-01     -4.500000e-01     -4.500000e-01     -4.500000e-01     
-4.500000e-01     -5.000000e-01     -5.000000e-01     -5.000000e-01     -5.000000e-01     
-5.000000e-01     -5.000000e-01     -5.000000e-01     -5.000000e-01     -5.000000e-01     
-5.000000e-01     -5.000000e-01     -5.000000e-01     -5.000000e-01     -5.000000e-01     
-5.000000e-01     -5.000000e-01     -5.000000e-01     -5.000000e-01     -5.000000e-01     
-5.000000e-01     -5.000000e-01     -5.000000e-01     -5.000000e-01     -5.000000e-01     
-5.000000e-01     -5.000000e-01     -5.000000e-01     -5.000000e-01     -5.000000e-01     

-4.000000e-01     
-3.500000e-01     -3.500000e-01     -4.000000e-01     -3.000000e-01     -3.000000e-01     
-2.500000e-01     -2.000000e-01     -2.000000e-01     -2.500000e-01     -4.000000e-01     
-3.500000e-01     -3.500000e-01     -4.000000e-01     -3.000000e-01     -3.000000e-01     
-2.500000e-01     -2.000000e-01     -1.500000e-01     -1.500000e-01     -3.500000e-01     
-3.000000e-01     -2.500000e-01     -2.000000e-01     -1.500000e-01     -2.500000e-01     
-2.000000e-01     -1.500000e-01     -3.500000e-01     -4.000000e-01     -3.000000e-01     
-5.000000e-01     -4.500000e-01     -4.500000e-01     -5.000000e-01     -4.000000e-01     
-3.500000e-01     -3.000000e-01     -2.500000e-01     -2.500000e-01     -2.000000e-01     
-2.000000e-01     -5.000000e-01     -4.500000e-01     -4.000000e-01     -3.500000e-01     
-3.000000e-01     -2.500000e-01     -2.000000e-01     -5.000000e-01     -4.500000e-01     
-4.000000e-01     -3.500000e-01     -3.000000e-01     -2.500000e-01     -2.000000e-01     
-1.500000e-01     -1.500000e-01     -3.500000e-01     -4.000000e-01     -3.000000e-01     
-2.500000e-01     -2.000000e-01     -1.500000e-01     -5.000000e-01     -4.500000e-01     
-4.500000e-01     -5.000000e-01     -4.000000e-01     -3.500000e-01     -3.000000e-01     
-2.500000e-01     -2.000000e-01     -1.500000e-01     -5.000000e-01     -4.500000e-01     
-4.000000e-01     -3.500000e-01     -3.000000e-01     -2.500000e-01     -2.000000e-01     
-1.500000e-01     -2.500000e-01     -2.000000e-01     -1.500000e-01     -4.500000e-01     
-5.000000e-01     -4.000000e-01     -3.500000e-01     -3.000000e-01     -2.500000e-01     
-2.000000e-01     -4.500000e-01     -5.000000e-01     -4.000000e-01     -3.500000e-01     
-3.000000e-01     -2.500000e-01     -2.000000e-01     -1.500000e-01     -1.500000e-01     
-4.500000e-01     -5.000000e-01     -4.000000e-01     -3.500000e-01     -3.000000e-01     
-2.500000e-01     -2.000000e-01     -1.500000e-01     -4.500000e-01     -5.000000e-01     
-4.000000e-01     -3.500000e-01     -3.000000e-01     -2.500000e-01     -2.000000e-01     
-1.500000e-01     -4.500000e-01     -5.000000e-01     -4.000000e-01     -3.500000e-01     
-3.000000e-01     -2.500000e-01     -2.000000e-01     -1.500000e-01     -4.500000e-01     
-5.000000e-01     -4.000000e-01     -3.500000e-01     -3.000000e-01     -2.500000e-01     
-2.000000e-01     -1.500000e-01     -4.500000e-01     -5.000000e-01     -4.000000e-01     
-3.500000e-01     -3.000000e-01     -2.500000e-01     -2.000000e-01     -1.500000e-01     
-5.000000e-01     -4.500000e-01     -4.000000e-01     -3.500000e-01     -3.000000e-01     
-2.500000e-01     -2.000000e-01     -1.500000e-01     -4.500000e-01     -5.000000e-01     
-4.000000e-01     -3.500000e-01     -3.000000e-01     -2.500000e-01     -2.000000e-01     
-1.500000e-01     -4.500000e-01     -5.000000e-01     -4.000000e-01     -3.500000e-01     
-3.000000e-01     -2.500000e-01     -2.000000e-01     -1.500000e-01     -4.500000e-01     
-5.000000e-01     -4.000000e-01     -3.500000e-01     -3.000000e-01     -2.500000e-01     
-2.000000e-01     -1.500000e-01     -4.500000e-01     -5.000000e-01     -4.000000e-01     
-3.500000e-01     -3.000000e-01     -2.500000e-01     -2.000000e-01     -1.500000e-01     
-4.500000e-01     -5.000000e-01     -4.000000e-01     -3.500000e-01     -3.000000e-01     
-2.500000e-01     -2.000000e-01     -1.500000e-01     -4.500000e-01     -5.000000e-01     
-4.000000e-01     -3.500000e-01     -3.000000e-01     -2.500000e-01     -2.000000e-01     
-1.500000e-01     -4.500000e-01     -5.000000e-01     -4.000000e-01     -3.500000e-01     
-3.000000e-01     -2.500000e-01     -2.000000e-01     -1.500000e-01     -4.500000e-01     
-5.000000e-01     -4.000000e-01     -3.500000e-01     -3.000000e-01     -2.500000e-01     
-2.000000e-01     -1.500000e-01     -4.000000e-01     -4.500000e-01     -3.500000e-01     
-2.500000e-01     -3.000000e-01     -2.000000e-01     -1.500000e-01     -4.500000e-01     
-5.000000e-01     -4.000000e-01     -3.500000e-01     -3.000000e-01     -2.500000e-01     
-2.000000e-01     -1.500000e-01     -4.500000e-01     -5.000000e-01     -4.000000e-01     
-3.500000e-01     -3.000000e-01     -2.500000e-01     -2.000000e-01     -1.500000e-01     
-4.500000e-01     -5.000000e-01     -4.000000e-01     -3.500000e-01     -3.000000e-01     
-2.500000e-01     -2.000000e-01     -1.500000e-01     -4.500000e-01     -5.000000e-01     
-4.000000e-01     -3.500000e-01     -3.000000e-01     -2.500000e-01     -2.000000e-01     
-1.500000e-01     -4.500000e-01     -5.000000e-01     -4.000000e-01     -3.500000e-01     
-3.000000e-01     -2.500000e-01     -2.000000e-01     -1.500000e-01     -4.500000e-01     
-5.000000e-01     -4.000000e-01     -3.500000e-01     -3.000000e-01     -2.500000e-01     
-2.000000e-01     -1.500000e-01     -4.500000e-01     -5.000000e-01     -4.000000e-01     
-3.500000e-01     -3.000000e-01     -2.500000e-01     -2.000000e-01     -1.500000e-01     
-4.500000e-01     -5.000000e-01     -4.000000e-01     -3.500000e-01     -3.000000e-01     
-2.500000e-01     -2.000000e-01     -4.500000e-01     -5.000000e-01     -4.000000e-01     
-3.500000e-01     -3.000000e-01     -2.500000e-01     -2.000000e-01     -4.500000e-01     
-5.000000e-01     -4.000000e-01     -3.500000e-01     -3.000000e-01     -2.500000e-01     
-2.000000e-01     -1.500000e-01     -4.500000e-01     -5.000000e-01     -4.000000e-01     
-3.500000e-01     -3.000000e-01     -2.500000e-01     -2.000000e-01     -1.500000e-01     
-4.500000e-01     -5.000000e-01     -4.000000e-01     -3.500000e-01     -3.000000e-01     
-2.500000e-01     -2.000000e-01     -1.500000e-01     -4.500000e-01     -5.000000e-01     
-4.000000e-01     -3.500000e-01     -3.000000e-01     -2.500000e-01     -2.000000e-01     
-1.500000e-01     -4.500000e-01     -5.000000e-01     -4.000000e-01     -3.500000e-01     
-3.000000e-01     -2.500000e-01     -2.000000e-01     -1.500000e-01     -4.500000e-01     
-5.000000e-01     -4.000000e-01     -3.500000e-01     -3.000000e-01     -2.500000e-01     
-2.000000e-01     -1.500000e-01     -4.500000e-01     -5.000000e-01     -4.000000e-01     
-3.500000e-01     -3.000000e-01     -2.500000e-01     -2.000000e-01     -1.500000e-01     
-4.500000e-01     -5.000000e-01     -4.000000e-01     -3.500000e-01     -3.000000e-01     
-2.500000e-01     -2.000000e-01     -1.500000e-01     -4.500000e-01     -5.000000e-01     
-4.000000e-01     -3.500000e-01     -3.000000e-01     -2.500000e-01     -2.000000e-01     
-4.500000e-01     -5.000000e-01     -4.000000e-01     -3.500000e-01     -3.000000e-01     
-2.500000e-01     -2.000000e-01     -4.500000e-01     -5.000000e-01     -4.000000e-01     
-3.500000e-01     -3.000000e-01     -2.500000e-01     -2.500000e-01     -3.000000e-01     
-4.500000e-01     -5.000000e-01     -4.000000e-01     -3.500000e-01     -3.000000e-01     
-2.500000e-01     -4.500000e-01     -5.000000e-01     -4.000000e-01     -3.500000e-01     
-3.000000e-01     -4.500000e-01     -5.000000e-01     -4.000000e-01     -3.500000e-01     
-3.000000e-01     -4.500000e-01     -5.000000e-01     -4.000000e-01     -3.500000e-01     
-3.000000e-01     -2.500000e-01     -3.000000e-01     -4.500000e-01     -5.000000e-01     
-4.000000e-01     -3.500000e-01     -3.000000e-01     -2.500000e-01     -4.500000e-01     
-5.000000e-01     -4.000000e-01     -3.500000e-01     -3.000000e-01     -2.500000e-01     
-4.500000e-01     -5.000000e-01     -4.000000e-01     -3.500000e-01     -3.000000e-01     
-4.500000e-01     -5.000000e-01     -4.000000e-01     -3.500000e-01     -3.000000e-01     
-4.500000e-01     -4.000000e-01     -3.500000e-01     -3.000000e-01     -5.000000e-01     

-2.000000e-01     
-2.000000e-01     -1.500000e-01     -1.500000e-01     -2.000000e-01     -1.500000e-01     
-3.500000e-01     -3.500000e-01     -3.000000e-01     -3.000000e-01     -4.000000e-01     
-4.000000e-01     -3.500000e-01     -3.500000e-01     -4.000000e-01     -3.500000e-01     
-4.000000e-01     -4.000000e-01     -4.000000e-01     -3.500000e-01     -4.500000e-01     
-4.500000e-01     -4.500000e-01     -4.500000e-01     -4.500000e-01     -5.000000e-01     
-5.000000e-01     -5.000000e-01     -1.500000e-01     -1.500000e-01     -1.500000e-01     
-2.000000e-01     -2.000000e-01     -1.500000e-01     -1.500000e-01     -2.000000e-01     
-2.000000e-01     -2.000000e-01     -2.000000e-01     -1.500000e-01     -2.000000e-01     
-1.500000e-01     -2.500000e-01     -2.500000e-01     -2.500000e-01     -2.500000e-01     
-2.500000e-01     -2.500000e-01     -2.500000e-01     -3.000000e-01     -3.000000e-01     
-3.000000e-01     -3.000000e-01     -3.000000e-01     -3.000000e-01     -3.000000e-01     
-3.000000e-01     -2.500000e-01     -3.500000e-01     -3.500000e-01     -3.500000e-01     
-3.500000e-01     -3.500000e-01     -3.500000e-01     -4.000000e-01     -4.000000e-01     
-3.500000e-01     -3.500000e-01     -4.000000e-01     -4.000000e-01     -4.000000e-01     
-4.000000e-01     -4.000000e-01     -4.000000e-01     -4.500000e-01     -4.500000e-01     
-4.500000e-01     -4.500000e-01     -4.500000e-01     -4.500000e-01     -4.500000e-01     
-4.500000e-01     -5.000000e-01     -5.000000e-01     -5.000000e-01     -1.500000e-01     
-1.500000e-01     -1.500000e-01     -1.500000e-01     -1.500000e-01     -1.500000e-01     
-1.500000e-01     -2.000000e-01     -2.000000e-01     -2.000000e-01     -2.000000e-01     
-2.000000e-01     -2.000000e-01     -2.000000e-01     -2.000000e-01     -1.500000e-01     
-2.500000e-01     -2.500000e-01     -2.500000e-01     -2.500000e-01     -2.500000e-01     
-2.500000e-01     -2.500000e-01     -2.500000e-01     -3.000000e-01     -3.000000e-01     
-3.000000e-01     -3.000000e-01     -3.000000e-01     -3.000000e-01     -3.000000e-01     
-3.000000e-01     -3.500000e-01     -3.500000e-01     -3.500000e-01     -3.500000e-01     
-3.500000e-01     -3.500000e-01     -3.500000e-01     -3.500000e-01     -4.000000e-01     
-4.000000e-01     -4.000000e-01     -4.000000e-01     -4.000000e-01     -4.000000e-01     
-4.000000e-01     -4.000000e-01     -4.500000e-01     -4.500000e-01     -4.500000e-01     
-4.500000e-01     -4.500000e-01     -4.500000e-01     -4.500000e-01     -4.500000e-01     
-5.000000e-01     -5.000000e-01     -5.000000e-01     -5.000000e-01     -5.000000e-01     
-5.000000e-01     -5.000000e-01     -5.000000e-01     -1.500000e-01     -1.500000e-01     
-1.500000e-01     -1.500000e-01     -1.500000e-01     -1.500000e-01     -1.500000e-01     
-1.500000e-01     -2.000000e-01     -2.000000e-01     -2.000000e-01     -2.000000e-01     
-2.000000e-01     -2.000000e-01     -2.000000e-01     -2.000000e-01     -2.500000e-01     
-2.500000e-01     -2.500000e-01     -2.500000e-01     -2.500000e-01     -2.500000e-01     
-2.500000e-01     -2.500000e-01     -3.000000e-01     -3.000000e-01     -3.000000e-01     
-3.000000e-01     -3.000000e-01     -3.000000e-01     -3.000000e-01     -3.000000e-01     
-3.500000e-01     -3.500000e-01     -3.500000e-01     -3.500000e-01     -3.500000e-01     
-3.500000e-01     -3.500000e-01     -3.500000e-01     -4.000000e-01     -4.000000e-01     
-4.000000e-01     -4.000000e-01     -4.000000e-01     -4.000000e-01     -4.000000e-01     
-4.000000e-01     -4.500000e-01     -4.500000e-01     -4.500000e-01     -4.500000e-01     
-4.500000e-01     -4.500000e-01     -4.500000e-01     -4.500000e-01     -5.000000e-01     
-5.000000e-01     -5.000000e-01     -5.000000e-01     -5.000000e-01     -5.000000e-01     
-5.000000e-01     -5.000000e-01     -1.500000e-01     -1.500000e-01     -1.500000e-01     
-1.500000e-01     -1.500000e-01     -1.500000e-01     -1.500000e-01     -2.000000e-01     
-2.000000e-01     -2.000000e-01     -2.000000e-01     -2.000000e-01     -2.000000e-01     
-2.000000e-01     -2.000000e-01     -2.500000e-01     -2.500000e-01     -2.500000e-01     
-2.500000e-01     -2.500000e-01     -2.500000e-01     -2.500000e-01     -2.500000e-01     
-3.000000e-01     -3.000000e-01     -3.000000e-01     -3.000000e-01     -3.000000e-01     
-3.000000e-01     -3.000000e-01     -3.000000e-01     -3.500000e-01     -3.500000e-01     
-3.500000e-01     -3.500000e-01     -3.500000e-01     -3.500000e-01     -3.500000e-01     
-3.500000e-01     -4.000000e-01     -4.000000e-01     -4.000000e-01     -4.000000e-01     
-4.000000e-01     -4.000000e-01     -4.000000e-01     -4.000000e-01     -4.500000e-01     
-4.500000e-01     -4.500000e-01     -4.500000e-01     -4.500000e-01     -4.500000e-01     
-4.500000e-01     -4.500000e-01     -5.000000e-01     -5.000000e-01     -5.000000e-01     
-5.000000e-01     -5.000000e-01     -5.000000e-01     -5.000000e-01     -5.000000e-01     
-2.000000e-01     -2.000000e-01     -2.000000e-01     -2.000000e-01     -2.000000e-01     
-2.000000e-01     -2.000000e-01     -2.500000e-01     -2.500000e-01     -2.500000e-01     
-2.500000e-01     -2.500000e-01     -2.500000e-01     -2.500000e-01     -3.000000e-01     
-3.000000e-01     -3.000000e-01     -3.000000e-01     -3.000000e-01     -3.000000e-01     
-3.000000e-01     -3.000000e-01     -3.500000e-01     -3.500000e-01     -3.500000e-01     
-3.500000e-01     -3.500000e-01     -3.500000e-01     -3.500000e-01     -3.500000e-01     
-4.000000e-01     -4.000000e-01     -4.000000e-01     -4.000000e-01     -4.000000e-01     
-4.000000e-01     -4.000000e-01     -4.000000e-01     -4.500000e-01     -4.500000e-01     
-4.500000e-01     -4.500000e-01     -4.500000e-01     -4.500000e-01     -4.500000e-01     
-4.500000e-01     -5.000000e-01     -5.000000e-01     -5.000000e-01     -5.000000e-01     
-5.000000e-01     -5.000000e-01     -5.000000e-01     -5.000000e-01     -3.000000e-01     
-3.000000e-01     -3.000000e-01     -3.000000e-01     -3.000000e-01     -3.000000e-01     
-3.000000e-01     -3.000000e-01     -3.500000e-01     -3.500000e-01     -3.500000e-01     
-3.500000e-01     -3.500000e-01     -3.500000e-01     -3.500000e-01     -3.500000e-01     
-4.000000e-01     -4.000000e-01     -4.000000e-01     -4.000000e-01     -4.000000e-01     
-4.000000e-01     -4.000000e-01     -4.000000e-01     -4.500000e-01     -4.500000e-01     
-4.500000e-01     -4.500000e-01     -4.500000e-01     -4.500000e-01     -4.500000e-01     
-5.000000e-01     -5.000000e-01     -5.000000e-01     -5.000000e-01     -5.000000e-01     
-5.000000e-01     -5.000000e-01     -3.000000e-01     -3.000000e-01     -3.000000e-01     
-3.000000e-01     -3.000000e-01     -3.000000e-01     -2.500000e-01     -2.500000e-01     
-3.500000e-01     -3.500000e-01     -3.500000e-01     -3.500000e-01     -3.500000e-01     
-3.500000e-01     -4.000000e-01     -4.000000e-01     -4.000000e-01     -4.000000e-01     
-4.000000e-01     -4.500000e-01     -4.500000e-01     -4.500000e-01     -4.500000e-01     
-4.500000e-01     -5.000000e-01     -5.000000e-01     -5.000000e-01     -5.000000e-01     
-5.000000e-01     -2.500000e-01     -2.500000e-01     -3.000000e-01     -3.000000e-01     
-3.000000e-01     -3.000000e-01     -3.000000e-01     -3.000000e-01     -3.500000e-01     
-3.500000e-01     -3.500000e-01     -3.500000e-01     -3.500000e-01     -3.500000e-01     
-4.000000e-01     -4.000000e-01     -4.000000e-01     -4.000000e-01     -4.000000e-01     
-4.500000e-01     -4.500000e-01     -4.500000e-01     -4.500000e-01     -4.500000e-01     
-5.000000e-01     -5.000000e-01     -5.000000e-01     -5.000000e-01     -5.000000e-01     


0      
0      0      0      0      0      0      0      0      0      0      
0      0      0      0      0      0      0      0      0      0      
0      0      0      0      0      0      0      0      0      0      
0      0      0      0      0      0      0      0      0      0      
0      0      0      0      0      0      0      0      0      0      
0      0      0      0      0      0      0      0      0      0      
0      0      0      0      0      0      0      0      0      0      
0      0      0      0      0      0      0      0      0      0      
0      0      0      0      0      0      0      0      0      0      
0      0      0      0      0      0      0      0      0      0      
0      0      0      0      0      0      0      0      0      0      
0      0      0      0      0      0      0      0      0      0      
0      0      0      0      0      0      0      0      0      0      
0      0      0      0      0      0      0      0      0      0      
0      0      0      0      0      0      0      0      0      0      
0      0      0      0      0      0      0      0      0      0      
0      0      0      0      0      0      0      0      0      0      
0      0      0      0      0      0      0      0      0      0      
0      0      0      0      0      0      0      0      0      0      
0      0      0      0      0      0      0      0      0      0      
0      0      0      0      0      0      0      0      0      0      
0      0      0      0      0      0      0      0      0      0      
0      0      0      0      0      0      0      0      0      0      
0      0      0      0      0      0      0      0      0      0      
0      0      0      0      0      0      0      0      0      1      
1      1      1      1      1      1      1      1      1      1      
1      1      1      1      1      1      1      1      1      1      
1      1      1      1      1      1      1      1      1      1      
1      1      1      1      1      1      1      1      1      1      
1      1      1      1      1      1      1      1      1      1      
1      1      1      1      1      1      1      1      1      1      
1      1      1      1      1      1      1      1      1      1      
1      1      1      1      1      1      1      1      1      1      
1      1      1      1      1      1      1      1      1      1      
1      1      1      1      1      1      1      1      1      1      
1      1      1      1      1      1      1      1      1      1      
1      1      1      1      1      1      1      1      1      1      
1      1      1      1      1      1      1      1      1      1      
1      1      1      1      1      1      1      1      1      1      
1      1      1      1      1      1      1      1      1      1      
1      1      1      1      1      1      1      1      1      1      
1      1      1      1      1      1      1      1      1      1      
1      1      1      1      1      1      1      1      1      1      
1      1      1      1      1      1      1      1      1      1      
1      1      1      1      1      1      1      1      1      1      
1      1      1      1      1      1      1      1      1      1      
1      1      1      1      1      1      1      1      1      1      
1      1      1      1      1      1      1      1      1      1      
1      1      1      1      1      1      1      1      1      1      
1      1      1      1      1      1      1      1      1      1      
1      1      1      1      1      1      1      1      1      1      
1      1      1      1      1      1      1      1      1      1      
1      1      1      1      1      1      1      1      1      1      
1      1      1      1      1      1      1      1      1      1      
1      1      1      1      1      1      1      1      1      1      
1      

29      37      2      3      31      38      5      6      
3      2      37      29      4      1      36      30      
36      37      29      30      95      96      89      88      
37      38      31      29      96      97      90      89      
63      62      7      8      73      72      17      18      
8      7      62      63      9      10      55      56      
62      63      56      55      123      124      116      115      
59      70      12      13      61      71      15      16      
13      12      70      59      14      11      69      60      
69      70      59      60      128      129      121      120      
61      71      15      16      62      72      17      7      
71      70      12      15      79      78      21      22      
70      71      61      59      129      130      122      121      
72      71      15      17      80      79      22      23      
71      72      62      61      130      131      123      122      
63      73      18      8      64      74      19      20      
73      72      17      18      81      80      23      24      
72      73      63      62      131      132      124      123      
74      73      18      19      82      81      24      25      
73      74      64      63      132      133      125      124      
78      79      71      70      137      138      130      129      
79      80      72      71      138      139      131      130      
81      80      23      24      84      83      26      27      
80      81      73      72      139      140      132      131      
82      81      24      25      85      84      27      28      
81      82      74      73      140      141      133      132      
83      84      81      80      147      148      140      139      
84      85      82      81      148      149      141      140      
86      93      33      34      88      95      36      30      
34      33      93      86      35      32      94      87      
93      94      32      33      102      103      43      44      
94      93      86      87      159      158      150      151      
95      93      33      36      104      102      44      45      
93      95      88      86      158      160      152      150      
96      95      36      37      105      104      45      46      
95      96      89      88      160      161      153      152      
90      97      38      31      91      98      39      40      
97      96      37      38      106      105      46      47      
96      97      90      89      161      162      154      153      