title = " tecplot file for process Mesh " 
variables = "x",  "y", "z", "cell_type" 
zone N = 443 E = 582 DATAPACKING = BLOCK,  VARLOCATION = ([4]=CELLCENTERED), ZONETYPE=FEBRICK 
4.500000e-01     
4.500000e-01     4.500000e-01     4.500000e-01     4.500000e-01     4.500000e-01     
4.500000e-01     4.500000e-01     4.500000e-01     4.500000e-01     4.500000e-01     
4.500000e-01     4.500000e-01     4.500000e-01     4.500000e-01     4.000000e-01     
4.000000e-01     4.000000e-01     4.000000e-01     4.000000e-01     4.000000e-01     
4.000000e-01     4.000000e-01     4.000000e-01     4.000000e-01     4.000000e-01     
4.000000e-01     4.000000e-01     4.000000e-01     4.000000e-01     4.000000e-01     
4.000000e-01     4.000000e-01     4.000000e-01     4.000000e-01     4.000000e-01     
3.500000e-01     3.500000e-01     3.500000e-01     3.500000e-01     3.500000e-01     
3.500000e-01     3.500000e-01     3.500000e-01     3.500000e-01     3.500000e-01     
3.500000e-01     3.500000e-01     3.500000e-01     3.500000e-01     3.500000e-01     
3.500000e-01     3.500000e-01     3.500000e-01     3.500000e-01     3.500000e-01     
3.500000e-01     3.500000e-01     3.500000e-01     3.000000e-01     3.000000e-01     
3.000000e-01     3.000000e-01     3.000000e-01     3.000000e-01     3.000000e-01     
3.000000e-01     3.000000e-01     3.000000e-01     3.000000e-01     3.000000e-01     
3.000000e-01     3.000000e-01     3.000000e-01     3.000000e-01     3.000000e-01     
3.000000e-01     3.000000e-01     3.000000e-01     3.000000e-01     3.000000e-01     
3.000000e-01     3.000000e-01     3.000000e-01     3.000000e-01     3.000000e-01     
3.000000e-01     3.000000e-01     3.000000e-01     3.000000e-01     3.000000e-01     
3.000000e-01     2.500000e-01     2.500000e-01     2.500000e-01     2.500000e-01     
2.500000e-01     2.500000e-01     2.500000e-01     2.500000e-01     2.500000e-01     
2.500000e-01     2.500000e-01     2.500000e-01     2.500000e-01     2.500000e-01     
2.500000e-01     2.500000e-01     2.500000e-01     2.500000e-01     2.500000e-01     
2.500000e-01     2.500000e-01     2.500000e-01     2.500000e-01     2.500000e-01     
2.500000e-01     2.500000e-01     2.500000e-01     2.500000e-01     2.500000e-01     
2.500000e-01     2.500000e-01     2.500000e-01     2.500000e-01     2.500000e-01     
2.500000e-01     2.500000e-01     2.500000e-01     2.500000e-01     2.500000e-01     
2.500000e-01     2.500000e-01     2.000000e-01     2.000000e-01     2.000000e-01     
2.000000e-01     2.000000e-01     2.000000e-01     2.000000e-01     2.000000e-01     
2.000000e-01     2.000000e-01     2.000000e-01     2.000000e-01     2.000000e-01     
2.000000e-01     2.000000e-01     2.000000e-01     2.000000e-01     2.000000e-01     
2.000000e-01     2.000000e-01     2.000000e-01     2.000000e-01     2.000000e-01     
2.000000e-01     2.000000e-01     2.000000e-01     2.000000e-01     2.000000e-01     
2.000000e-01     2.000000e-01     2.000000e-01     2.000000e-01     2.000000e-01     
2.000000e-01     2.000000e-01     2.000000e-01     2.000000e-01     2.000000e-01     
2.000000e-01     2.000000e-01     2.000000e-01     2.000000e-01     2.000000e-01     
2.000000e-01     2.000000e-01     2.000000e-01     1.500000e-01     1.500000e-01     
1.500000e-01     1.500000e-01     1.500000e-01     1.500000e-01     1.500000e-01     
1.500000e-01     1.500000e-01     1.500000e-01     1.500000e-01     1.500000e-01     
1.500000e-01     1.500000e-01     1.500000e-01     1.500000e-01     1.500000e-01     
1.500000e-01     1.500000e-01     1.500000e-01     1.500000e-01     1.500000e-01     
1.500000e-01     1.500000e-01     1.500000e-01     1.500000e-01     1.500000e-01     
1.500000e-01     1.500000e-01     1.500000e-01     1.500000e-01     1.500000e-01     
1.500000e-01     1.500000e-01     1.500000e-01     1.500000e-01     1.500000e-01     
1.500000e-01     1.500000e-01     1.500000e-01     1.500000e-01     1.500000e-01     
1.500000e-01     1.500000e-01     1.500000e-01     1.500000e-01     1.500000e-01     
1.500000e-01     1.500000e-01     1.500000e-01     1.000000e-01     1.000000e-01     
1.000000e-01     1.000000e-01     1.000000e-01     1.000000e-01     1.000000e-01     
1.000000e-01     1.000000e-01     1.000000e-01     1.000000e-01     1.000000e-01     
1.000000e-01     1.000000e-01     1.000000e-01     1.000000e-01     1.000000e-01     
1.000000e-01     1.000000e-01     1.000000e-01     1.000000e-01     1.000000e-01     
1.000000e-01     1.000000e-01     1.000000e-01     1.000000e-01     1.000000e-01     
1.000000e-01     1.000000e-01     1.000000e-01     1.000000e-01     1.000000e-01     
1.000000e-01     1.000000e-01     1.000000e-01     1.000000e-01     1.000000e-01     
1.000000e-01     1.000000e-01     1.000000e-01     1.000000e-01     1.000000e-01     
1.000000e-01     1.000000e-01     1.000000e-01     1.000000e-01     1.000000e-01     
1.000000e-01     1.000000e-01     1.000000e-01     1.000000e-01     1.000000e-01     
1.000000e-01     1.000000e-01     1.000000e-01     1.000000e-01     1.000000e-01     
1.000000e-01     1.000000e-01     1.000000e-01     1.000000e-01     5.000000e-02     
5.000000e-02     5.000000e-02     5.000000e-02     5.000000e-02     5.000000e-02     
5.000000e-02     5.000000e-02     5.000000e-02     5.000000e-02     5.000000e-02     
5.000000e-02     5.000000e-02     5.000000e-02     5.000000e-02     5.000000e-02     
5.000000e-02     5.000000e-02     5.000000e-02     5.000000e-02     5.000000e-02     
5.000000e-02     5.000000e-02     5.000000e-02     5.000000e-02     5.000000e-02     
5.000000e-02     5.000000e-02     5.000000e-02     5.000000e-02     5.000000e-02     
5.000000e-02     5.000000e-02     5.000000e-02     5.000000e-02     5.000000e-02     
5.000000e-02     5.000000e-02     5.000000e-02     5.000000e-02     5.000000e-02     
5.000000e-02     5.000000e-02     5.000000e-02     5.000000e-02     5.000000e-02     
5.000000e-02     5.000000e-02     5.000000e-02     5.000000e-02     5.000000e-02     
5.000000e-02     5.000000e-02     5.000000e-02     5.000000e-02     5.000000e-02     
5.000000e-02     5.000000e-02     5.000000e-02     5.000000e-02     5.000000e-02     
5.000000e-02     0.000000e+00     0.000000e+00     0.000000e+00     0.000000e+00     
0.000000e+00     -2.775558e-17     0.000000e+00     0.000000e+00     0.000000e+00     
0.000000e+00     0.000000e+00     -2.775558e-17     0.000000e+00     0.000000e+00     
0.000000e+00     0.000000e+00     0.000000e+00     -2.775558e-17     0.000000e+00     
-2.775558e-17     0.000000e+00     0.000000e+00     0.000000e+00     0.000000e+00     
-2.775558e-17     0.000000e+00     -2.775558e-17     0.000000e+00     0.000000e+00     
0.000000e+00     0.000000e+00     0.000000e+00     -2.775558e-17     0.000000e+00     
-2.775558e-17     0.000000e+00     0.000000e+00     0.000000e+00     0.000000e+00     
0.000000e+00     -2.775558e-17     0.000000e+00     0.000000e+00     0.000000e+00     
0.000000e+00     0.000000e+00     0.000000e+00     0.000000e+00     0.000000e+00     
0.000000e+00     0.000000e+00     0.000000e+00     -2.775558e-17     0.000000e+00     
0.000000e+00     0.000000e+00     0.000000e+00     -2.775558e-17     -5.000000e-02     
-5.000000e-02     -5.000000e-02     -5.000000e-02     -5.000000e-02     -5.000000e-02     
-5.000000e-02     -5.000000e-02     -5.000000e-02     -5.000000e-02     -5.000000e-02     
-5.000000e-02     -5.000000e-02     -5.000000e-02     -5.000000e-02     -5.000000e-02     
-5.000000e-02     -5.000000e-02     -5.000000e-02     -5.000000e-02     -5.000000e-02     
-5.000000e-02     -5.000000e-02     -5.000000e-02     -5.000000e-02     -5.000000e-02     
-5.000000e-02     -5.000000e-02     -5.000000e-02     -5.000000e-02     -5.000000e-02     
-5.000000e-02     -5.000000e-02     
-5.000000e-02     
0.000000e+00     0.000000e+00     -5.000000e-02     5.000000e-02     5.000000e-02     
1.000000e-01     1.000000e-01     -5.000000e-02     0.000000e+00     5.000000e-02     
1.000000e-01     -5.000000e-02     -2.498002e-17     5.000000e-02     0.000000e+00     
-5.000000e-02     5.000000e-02     1.000000e-01     -5.000000e-02     0.000000e+00     
5.000000e-02     1.000000e-01     1.500000e-01     1.500000e-01     2.000000e-01     
2.000000e-01     -5.000000e-02     0.000000e+00     5.000000e-02     1.000000e-01     
1.500000e-01     2.000000e-01     -5.000000e-02     -2.220446e-17     5.000000e-02     
0.000000e+00     -5.000000e-02     5.000000e-02     1.000000e-01     1.500000e-01     
2.000000e-01     -5.000000e-02     0.000000e+00     5.000000e-02     1.000000e-01     
1.500000e-01     2.000000e-01     -5.000000e-02     0.000000e+00     5.000000e-02     
1.000000e-01     1.500000e-01     2.000000e-01     -5.000000e-02     -1.942890e-17     
5.000000e-02     1.000000e-01     1.500000e-01     0.000000e+00     -5.000000e-02     
5.000000e-02     1.000000e-01     1.500000e-01     2.000000e-01     -5.000000e-02     
0.000000e+00     5.000000e-02     1.000000e-01     1.500000e-01     2.000000e-01     
-5.000000e-02     0.000000e+00     5.000000e-02     1.000000e-01     1.500000e-01     
2.000000e-01     -5.000000e-02     -1.665335e-17     5.000000e-02     1.000000e-01     
1.500000e-01     -5.000000e-02     0.000000e+00     5.000000e-02     1.000000e-01     
1.500000e-01     -5.000000e-02     0.000000e+00     5.000000e-02     1.000000e-01     
1.500000e-01     0.000000e+00     -5.000000e-02     5.000000e-02     1.000000e-01     
1.500000e-01     -5.000000e-02     -1.000000e-01     -1.000000e-01     0.000000e+00     
5.000000e-02     1.000000e-01     1.500000e-01     -5.000000e-02     -1.000000e-01     
0.000000e+00     5.000000e-02     1.000000e-01     1.500000e-01     -5.000000e-02     
-1.000000e-01     -1.387779e-17     5.000000e-02     1.000000e-01     1.500000e-01     
-5.000000e-02     -1.000000e-01     0.000000e+00     5.000000e-02     1.000000e-01     
1.500000e-01     -5.000000e-02     -1.000000e-01     0.000000e+00     5.000000e-02     
1.000000e-01     1.500000e-01     -1.000000e-01     -5.000000e-02     0.000000e+00     
5.000000e-02     1.000000e-01     -5.000000e-02     -1.000000e-01     0.000000e+00     
5.000000e-02     1.000000e-01     1.500000e-01     -1.000000e-01     -5.000000e-02     
0.000000e+00     5.000000e-02     1.000000e-01     1.500000e-01     -1.000000e-01     
-5.000000e-02     0.000000e+00     5.000000e-02     1.000000e-01     1.500000e-01     
2.000000e-01     2.000000e-01     -1.000000e-01     -5.000000e-02     -1.110223e-17     
5.000000e-02     1.000000e-01     1.500000e-01     2.000000e-01     -1.000000e-01     
-5.000000e-02     0.000000e+00     5.000000e-02     1.000000e-01     1.500000e-01     
2.000000e-01     -1.000000e-01     -5.000000e-02     0.000000e+00     5.000000e-02     
1.000000e-01     1.500000e-01     -1.000000e-01     -5.000000e-02     0.000000e+00     
5.000000e-02     1.000000e-01     1.500000e-01     -5.000000e-02     -1.000000e-01     
0.000000e+00     5.000000e-02     1.000000e-01     1.500000e-01     -1.000000e-01     
-5.000000e-02     0.000000e+00     5.000000e-02     1.000000e-01     1.500000e-01     
2.000000e-01     2.000000e-01     -1.000000e-01     -1.500000e-01     -1.500000e-01     
-5.000000e-02     0.000000e+00     5.000000e-02     1.000000e-01     1.500000e-01     
2.000000e-01     -1.000000e-01     -1.500000e-01     -5.000000e-02     -8.326673e-18     
5.000000e-02     1.000000e-01     1.500000e-01     2.000000e-01     -1.000000e-01     
-5.000000e-02     0.000000e+00     5.000000e-02     1.000000e-01     1.500000e-01     
2.000000e-01     -1.000000e-01     -5.000000e-02     0.000000e+00     5.000000e-02     
1.000000e-01     1.500000e-01     -1.000000e-01     -5.000000e-02     0.000000e+00     
5.000000e-02     1.000000e-01     1.500000e-01     5.000000e-02     1.000000e-01     
1.000000e-01     5.000000e-02     1.500000e-01     1.500000e-01     2.000000e-01     
2.000000e-01     0.000000e+00     5.000000e-02     2.775558e-18     1.000000e-01     
1.500000e-01     2.000000e-01     -5.000000e-02     -1.000000e-01     0.000000e+00     
5.000000e-02     1.000000e-01     1.500000e-01     2.000000e-01     -1.000000e-01     
-1.500000e-01     -1.500000e-01     -5.000000e-02     0.000000e+00     5.000000e-02     
1.000000e-01     1.500000e-01     2.000000e-01     -1.500000e-01     -1.000000e-01     
-5.000000e-02     0.000000e+00     5.000000e-02     1.000000e-01     1.500000e-01     
2.000000e-01     -1.500000e-01     -1.000000e-01     -5.000000e-02     -5.551115e-18     
5.000000e-02     1.000000e-01     1.500000e-01     2.000000e-01     -5.000000e-02     
0.000000e+00     5.000000e-02     1.000000e-01     1.500000e-01     2.000000e-01     
-5.000000e-02     0.000000e+00     5.000000e-02     1.000000e-01     1.500000e-01     
0.000000e+00     5.000000e-02     1.000000e-01     1.500000e-01     1.000000e-01     
5.000000e-02     1.500000e-01     2.000000e-01     -1.000000e-01     -5.000000e-02     
-5.000000e-02     -1.000000e-01     1.387779e-18     0.000000e+00     5.000000e-02     
1.000000e-01     1.500000e-01     2.000000e-01     -1.000000e-01     -5.000000e-02     
0.000000e+00     5.000000e-02     1.000000e-01     1.500000e-01     2.000000e-01     
-1.000000e-01     -1.500000e-01     -5.000000e-02     0.000000e+00     5.000000e-02     
1.000000e-01     1.500000e-01     2.000000e-01     -1.500000e-01     -1.000000e-01     
-5.000000e-02     0.000000e+00     5.000000e-02     1.000000e-01     1.500000e-01     
2.000000e-01     -1.500000e-01     -1.000000e-01     -5.000000e-02     0.000000e+00     
5.000000e-02     1.000000e-01     1.500000e-01     2.000000e-01     -5.000000e-02     
-2.775558e-18     5.000000e-02     1.000000e-01     1.500000e-01     2.000000e-01     
-5.000000e-02     0.000000e+00     5.000000e-02     1.000000e-01     1.500000e-01     
2.000000e-01     -5.000000e-02     0.000000e+00     5.000000e-02     1.000000e-01     
1.500000e-01     -5.000000e-02     -1.000000e-01     0.000000e+00     5.000000e-02     
1.000000e-01     1.500000e-01     -1.000000e-01     -5.000000e-02     0.000000e+00     
5.000000e-02     1.000000e-01     1.500000e-01     -1.000000e-01     -5.000000e-02     
0.000000e+00     5.000000e-02     1.000000e-01     1.500000e-01     -1.000000e-01     
-1.500000e-01     -5.000000e-02     0.000000e+00     5.000000e-02     1.000000e-01     
1.500000e-01     2.000000e-01     -1.500000e-01     -1.000000e-01     -5.000000e-02     
0.000000e+00     5.000000e-02     1.000000e-01     1.500000e-01     2.000000e-01     
-1.500000e-01     -1.000000e-01     -5.000000e-02     0.000000e+00     5.000000e-02     
1.000000e-01     1.500000e-01     2.000000e-01     -5.000000e-02     1.232595e-32     
5.000000e-02     1.000000e-01     1.500000e-01     2.000000e-01     -5.000000e-02     
0.000000e+00     5.000000e-02     1.000000e-01     1.500000e-01     2.000000e-01     
0.000000e+00     5.000000e-02     1.000000e-01     1.500000e-01     -5.000000e-02     
-1.000000e-01     0.000000e+00     5.000000e-02     1.000000e-01     1.500000e-01     
-1.000000e-01     -5.000000e-02     -1.387779e-18     5.000000e-02     1.000000e-01     
1.500000e-01     -1.000000e-01     -5.000000e-02     0.000000e+00     5.000000e-02     
1.000000e-01     1.500000e-01     -1.000000e-01     -5.000000e-02     0.000000e+00     
5.000000e-02     1.000000e-01     1.500000e-01     -1.000000e-01     -5.000000e-02     
0.000000e+00     5.000000e-02     1.000000e-01     -5.000000e-02     0.000000e+00     
5.000000e-02     1.000000e-01     
-1.000000e-01     
-1.000000e-01     -5.000000e-02     -5.000000e-02     -1.000000e-01     -5.000000e-02     
-1.000000e-01     -5.000000e-02     -1.500000e-01     -1.500000e-01     -1.500000e-01     
-1.500000e-01     -2.000000e-01     -2.000000e-01     -2.000000e-01     -5.000000e-02     
-5.000000e-02     -5.000000e-02     -5.000000e-02     -1.000000e-01     -1.000000e-01     
-1.000000e-01     -1.000000e-01     -1.000000e-01     -5.000000e-02     -1.000000e-01     
-5.000000e-02     -1.500000e-01     -1.500000e-01     -1.500000e-01     -1.500000e-01     
-1.500000e-01     -1.500000e-01     -2.000000e-01     -2.000000e-01     -2.000000e-01     
-5.000000e-02     -5.000000e-02     -5.000000e-02     -5.000000e-02     -5.000000e-02     
-5.000000e-02     -1.000000e-01     -1.000000e-01     -1.000000e-01     -1.000000e-01     
-1.000000e-01     -1.000000e-01     -1.500000e-01     -1.500000e-01     -1.500000e-01     
-1.500000e-01     -1.500000e-01     -1.500000e-01     -2.000000e-01     -2.000000e-01     
-2.000000e-01     -2.000000e-01     -2.000000e-01     -5.000000e-02     -5.000000e-02     
-5.000000e-02     -5.000000e-02     -5.000000e-02     -5.000000e-02     -1.000000e-01     
-1.000000e-01     -1.000000e-01     -1.000000e-01     -1.000000e-01     -1.000000e-01     
-1.500000e-01     -1.500000e-01     -1.500000e-01     -1.500000e-01     -1.500000e-01     
-1.500000e-01     -2.000000e-01     -2.000000e-01     -2.000000e-01     -2.000000e-01     
-2.000000e-01     -2.500000e-01     -2.500000e-01     -2.500000e-01     -2.500000e-01     
-2.500000e-01     -3.000000e-01     -3.000000e-01     -3.000000e-01     -3.000000e-01     
-3.000000e-01     -5.000000e-02     -5.000000e-02     -5.000000e-02     -5.000000e-02     
-5.000000e-02     -1.000000e-01     -1.000000e-01     -5.000000e-02     -1.000000e-01     
-1.000000e-01     -1.000000e-01     -1.000000e-01     -1.500000e-01     -1.500000e-01     
-1.500000e-01     -1.500000e-01     -1.500000e-01     -1.500000e-01     -2.000000e-01     
-2.000000e-01     -2.000000e-01     -2.000000e-01     -2.000000e-01     -2.000000e-01     
-2.500000e-01     -2.500000e-01     -2.500000e-01     -2.500000e-01     -2.500000e-01     
-2.500000e-01     -3.000000e-01     -3.000000e-01     -3.000000e-01     -3.000000e-01     
-3.000000e-01     -3.000000e-01     -3.500000e-01     -3.500000e-01     -3.500000e-01     
-3.500000e-01     -3.500000e-01     -5.000000e-02     -5.000000e-02     -5.000000e-02     
-5.000000e-02     -5.000000e-02     -5.000000e-02     -1.000000e-01     -1.000000e-01     
-1.000000e-01     -1.000000e-01     -1.000000e-01     -1.000000e-01     -1.500000e-01     
-1.500000e-01     -1.500000e-01     -1.500000e-01     -1.500000e-01     -1.500000e-01     
-1.500000e-01     -1.000000e-01     -2.000000e-01     -2.000000e-01     -2.000000e-01     
-2.000000e-01     -2.000000e-01     -2.000000e-01     -2.000000e-01     -2.500000e-01     
-2.500000e-01     -2.500000e-01     -2.500000e-01     -2.500000e-01     -2.500000e-01     
-2.500000e-01     -3.000000e-01     -3.000000e-01     -3.000000e-01     -3.000000e-01     
-3.000000e-01     -3.000000e-01     -3.500000e-01     -3.500000e-01     -3.500000e-01     
-3.500000e-01     -3.500000e-01     -3.500000e-01     -5.000000e-02     -5.000000e-02     
-5.000000e-02     -5.000000e-02     -5.000000e-02     -5.000000e-02     -1.000000e-01     
-1.000000e-01     -1.000000e-01     -1.000000e-01     -1.000000e-01     -1.000000e-01     
-1.000000e-01     -5.000000e-02     -1.500000e-01     -1.500000e-01     -1.000000e-01     
-1.500000e-01     -1.500000e-01     -1.500000e-01     -1.500000e-01     -1.500000e-01     
-1.500000e-01     -2.000000e-01     -2.000000e-01     -2.000000e-01     -2.000000e-01     
-2.000000e-01     -2.000000e-01     -2.000000e-01     -2.000000e-01     -2.500000e-01     
-2.500000e-01     -2.500000e-01     -2.500000e-01     -2.500000e-01     -2.500000e-01     
-2.500000e-01     -3.000000e-01     -3.000000e-01     -3.000000e-01     -3.000000e-01     
-3.000000e-01     -3.000000e-01     -3.500000e-01     -3.500000e-01     -3.500000e-01     
-3.500000e-01     -3.500000e-01     -3.500000e-01     5.000000e-02     5.000000e-02     
1.000000e-01     1.000000e-01     5.000000e-02     1.000000e-01     5.000000e-02     
1.000000e-01     0.000000e+00     0.000000e+00     5.000000e-02     0.000000e+00     
0.000000e+00     0.000000e+00     -5.000000e-02     -5.000000e-02     -5.000000e-02     
-5.000000e-02     -5.000000e-02     -5.000000e-02     -5.000000e-02     -1.000000e-01     
-1.000000e-01     -5.000000e-02     -1.000000e-01     -1.000000e-01     -1.000000e-01     
-1.000000e-01     -1.000000e-01     -1.000000e-01     -1.500000e-01     -1.500000e-01     
-1.500000e-01     -1.500000e-01     -1.500000e-01     -1.500000e-01     -1.500000e-01     
-1.500000e-01     -2.000000e-01     -2.000000e-01     -2.000000e-01     -2.000000e-01     
-2.000000e-01     -2.000000e-01     -2.000000e-01     -2.000000e-01     -2.500000e-01     
-2.500000e-01     -2.500000e-01     -2.500000e-01     -2.500000e-01     -2.500000e-01     
-3.000000e-01     -3.000000e-01     -3.000000e-01     -3.000000e-01     -3.000000e-01     
-3.500000e-01     -3.500000e-01     -3.500000e-01     -3.500000e-01     1.000000e-01     
1.000000e-01     1.000000e-01     1.000000e-01     5.000000e-02     5.000000e-02     
1.000000e-01     1.000000e-01     5.000000e-02     1.000000e-01     5.000000e-02     
5.000000e-02     5.000000e-02     5.000000e-02     0.000000e+00     0.000000e+00     
0.000000e+00     0.000000e+00     0.000000e+00     0.000000e+00     0.000000e+00     
-5.000000e-02     -5.000000e-02     -5.000000e-02     -5.000000e-02     -5.000000e-02     
-5.000000e-02     -5.000000e-02     -5.000000e-02     -1.000000e-01     -1.000000e-01     
-1.000000e-01     -1.000000e-01     -1.000000e-01     -1.000000e-01     -1.000000e-01     
-1.000000e-01     -1.500000e-01     -1.500000e-01     -1.500000e-01     -1.500000e-01     
-1.500000e-01     -1.500000e-01     -1.500000e-01     -1.500000e-01     -2.000000e-01     
-2.000000e-01     -2.000000e-01     -2.000000e-01     -2.000000e-01     -2.000000e-01     
-2.500000e-01     -2.500000e-01     -2.500000e-01     -2.500000e-01     -2.500000e-01     
-2.500000e-01     -3.000000e-01     -3.000000e-01     -3.000000e-01     -3.000000e-01     
-3.000000e-01     1.000000e-01     1.000000e-01     1.000000e-01     1.000000e-01     
1.000000e-01     1.000000e-01     5.000000e-02     5.000000e-02     5.000000e-02     
5.000000e-02     5.000000e-02     5.000000e-02     0.000000e+00     0.000000e+00     
0.000000e+00     0.000000e+00     0.000000e+00     0.000000e+00     -5.000000e-02     
-5.000000e-02     -5.000000e-02     -5.000000e-02     -5.000000e-02     -5.000000e-02     
-5.000000e-02     -5.000000e-02     -1.000000e-01     -1.000000e-01     -1.000000e-01     
-1.000000e-01     -1.000000e-01     -1.000000e-01     -1.000000e-01     -1.000000e-01     
-1.500000e-01     -1.500000e-01     -1.500000e-01     -1.500000e-01     -1.500000e-01     
-1.500000e-01     -1.500000e-01     -1.500000e-01     -2.000000e-01     -2.000000e-01     
-2.000000e-01     -2.000000e-01     -2.000000e-01     -2.000000e-01     -2.500000e-01     
-2.500000e-01     -2.500000e-01     -2.500000e-01     -2.500000e-01     -2.500000e-01     
-3.000000e-01     -3.000000e-01     -3.000000e-01     -3.000000e-01     1.000000e-01     
1.000000e-01     1.000000e-01     1.000000e-01     1.000000e-01     1.000000e-01     
5.000000e-02     5.000000e-02     5.000000e-02     5.000000e-02     5.000000e-02     
5.000000e-02     0.000000e+00     0.000000e+00     0.000000e+00     0.000000e+00     
0.000000e+00     0.000000e+00     -5.000000e-02     -5.000000e-02     -5.000000e-02     
-5.000000e-02     -5.000000e-02     -5.000000e-02     -1.000000e-01     -1.000000e-01     
-1.000000e-01     -1.000000e-01     -1.000000e-01     -1.500000e-01     -1.500000e-01     
-1.500000e-01     -1.500000e-01     

0      
0      0      0      0      0      0      0      0      0      0      
0      0      0      0      0      0      0      0      0      0      
0      0      0      0      0      0      0      0      0      0      
0      0      0      0      0      0      0      0      0      0      
0      0      0      0      0      0      0      0      0      0      
0      0      0      0      0      0      0      0      0      0      
0      0      0      0      0      0      0      0      0      0      
0      0      0      0      0      0      0      0      0      0      
0      0      0      0      0      0      0      0      0      0      
0      0      0      0      0      0      0      0      0      0      
0      0      0      0      0      0      0      0      0      0      
0      0      0      0      0      0      0      0      0      0      
0      0      0      0      0      0      0      0      0      0      
0      0      0      0      0      0      0      0      0      0      
0      0      0      0      0      0      0      0      0      0      
0      0      0      0      0      0      0      0      0      0      
0      0      0      0      0      0      0      0      0      0      
0      0      0      0      0      0      0      0      0      0      
0      0      0      0      0      0      0      0      0      0      
0      0      0      0      0      0      0      0      0      0      
0      0      0      0      0      0      0      0      0      0      
0      0      0      0      0      0      0      0      0      0      
0      0      0      0      0      0      0      0      0      0      
0      0      0      0      0      0      0      0      0      0      
0      0      0      0      0      0      0      0      0      1      
1      1      1      1      1      1      1      1      1      1      
1      1      1      1      1      1      1      1      1      1      
1      1      1      1      1      1      1      1      1      1      
1      1      1      1      1      1      1      1      1      1      
1      1      1      1      1      1      1      1      1      1      
1      1      1      1      1      1      1      1      1      1      
1      1      1      1      1      1      1      1      1      1      
1      1      1      1      1      1      1      1      1      1      
1      1      1      1      1      1      1      1      1      1      
1      1      1      1      1      1      1      1      1      1      
1      1      1      1      1      1      1      1      1      1      
1      1      1      1      1      1      1      1      1      1      
1      1      1      1      1      1      1      1      1      1      
1      1      1      1      1      1      1      1      1      1      
1      1      1      1      1      1      1      1      1      1      
1      1      1      1      1      1      1      1      1      1      
1      1      1      1      1      1      1      1      1      1      
1      1      1      1      1      1      1      1      1      1      
1      1      1      1      1      1      1      1      1      1      
1      1      1      1      1      1      1      1      1      1      
1      1      1      1      1      1      1      1      1      1      
1      1      1      1      1      1      1      1      1      1      
1      1      1      1      1      1      1      1      1      1      
1      1      1      1      1      1      1      1      1      1      
1      1      1      1      1      1      1      1      1      1      
1      1      1      1      1      1      1      1      1      1      
1      1      1      1      1      1      1      1      1      1      
1      1      1      1      1      1      1      1      1      1      
1      1      1      1      1      1      1      1      1      1      
1      1      1      1      1      1      1      1      1      1      
1      1      1      1      1      1      1      1      1      1      
1      1      1      1      1      1      1      1      1      1      
1      1      1      1      1      1      1      1      1      1      
1      

16      21      2      3      18      22      5      6      
3      2      21      16      4      1      20      17      
21      20      1      2      29      28      9      10      
20      21      16      17      43      44      37      38      
18      22      5      6      19      23      7      8      
22      21      2      5      30      29      10      11      
21      22      18      16      44      45      39      37      
23      22      5      7      31      30      11      12      
22      23      19      18      45      46      40      39      
29      28      9      10      35      34      13      14      
28      29      21      20      49      50      44      43      
30      29      10      11      36      35      14      15      
29      30      22      21      50      51      45      44      
30      31      23      22      51      52      46      45      
34      35      29      28      55      56      50      49      
35      36      30      29      56      57      51      50      
43      44      37      38      66      67      60      61      
44      45      39      37      67      68      62      60      
40      46      23      19      41      47      24      25      
45      46      40      39      68      69      63      62      
41      47      24      25      42      48      26      27      
47      46      23      24      53      52      31      32      
46      47      41      40      69      70      64      63      
48      47      24      26      54      53      32      33      
47      48      42      41      70      71      65      64      
49      50      44      43      72      73      67      66      
50      51      45      44      73      74      68      67      
51      52      46      45      74      75      69      68      
52      53      47      46      75      76      70      69      
53      54      48      47      76      77      71      70      
55      56      50      49      78      79      73      72      
56      57      51      50      79      80      74      73      
66      67      60      61      98      101      93      94      
67      68      62      60      101      102      95      93      
68      69      63      62      102      103      96      95      