title = " tecplot file for process Mesh " 
variables = "x",  "y", "z", "cell_type" 
zone N = 419 E = 541 DATAPACKING = BLOCK,  VARLOCATION = ([4]=CELLCENTERED), ZONETYPE=FEBRICK 
4.500000e-01     
4.500000e-01     5.000000e-01     5.000000e-01     4.500000e-01     5.000000e-01     
4.500000e-01     5.000000e-01     4.500000e-01     5.000000e-01     4.500000e-01     
5.000000e-01     4.500000e-01     5.000000e-01     4.500000e-01     5.000000e-01     
4.500000e-01     4.500000e-01     5.000000e-01     5.000000e-01     4.500000e-01     
5.000000e-01     4.500000e-01     5.000000e-01     4.500000e-01     5.000000e-01     
4.500000e-01     5.000000e-01     4.500000e-01     5.000000e-01     4.500000e-01     
5.000000e-01     4.500000e-01     5.000000e-01     4.500000e-01     5.000000e-01     
4.500000e-01     5.000000e-01     4.500000e-01     5.000000e-01     4.500000e-01     
5.000000e-01     4.500000e-01     5.000000e-01     4.500000e-01     5.000000e-01     
4.500000e-01     5.000000e-01     4.500000e-01     5.000000e-01     4.500000e-01     
5.000000e-01     4.500000e-01     5.000000e-01     4.500000e-01     5.000000e-01     
4.500000e-01     5.000000e-01     4.500000e-01     5.000000e-01     4.500000e-01     
5.000000e-01     4.500000e-01     5.000000e-01     4.500000e-01     5.000000e-01     
4.500000e-01     5.000000e-01     4.500000e-01     5.000000e-01     4.500000e-01     
5.000000e-01     4.500000e-01     5.000000e-01     4.500000e-01     5.000000e-01     
4.500000e-01     5.000000e-01     4.500000e-01     5.000000e-01     4.500000e-01     
5.000000e-01     4.500000e-01     5.000000e-01     4.500000e-01     5.000000e-01     
4.500000e-01     5.000000e-01     4.500000e-01     5.000000e-01     4.500000e-01     
5.000000e-01     4.500000e-01     5.000000e-01     4.500000e-01     5.000000e-01     
4.500000e-01     5.000000e-01     4.500000e-01     5.000000e-01     4.500000e-01     
5.000000e-01     4.500000e-01     5.000000e-01     4.500000e-01     4.000000e-01     
4.000000e-01     4.000000e-01     4.000000e-01     4.000000e-01     4.000000e-01     
4.000000e-01     4.000000e-01     4.000000e-01     4.000000e-01     4.000000e-01     
4.000000e-01     4.000000e-01     4.000000e-01     4.000000e-01     4.000000e-01     
4.000000e-01     4.000000e-01     4.000000e-01     4.000000e-01     4.000000e-01     
4.000000e-01     4.000000e-01     4.000000e-01     4.000000e-01     4.000000e-01     
4.000000e-01     4.000000e-01     4.000000e-01     4.000000e-01     4.000000e-01     
4.000000e-01     4.000000e-01     4.000000e-01     4.000000e-01     4.000000e-01     
4.000000e-01     4.000000e-01     4.000000e-01     4.000000e-01     4.000000e-01     
4.000000e-01     4.000000e-01     4.000000e-01     4.000000e-01     4.000000e-01     
4.000000e-01     4.000000e-01     4.000000e-01     4.000000e-01     4.000000e-01     
4.000000e-01     4.000000e-01     4.000000e-01     4.000000e-01     4.000000e-01     
4.000000e-01     4.000000e-01     3.500000e-01     3.500000e-01     3.500000e-01     
3.500000e-01     3.500000e-01     3.500000e-01     3.500000e-01     3.500000e-01     
3.500000e-01     3.500000e-01     3.500000e-01     3.500000e-01     3.500000e-01     
3.500000e-01     3.500000e-01     3.500000e-01     3.500000e-01     3.500000e-01     
3.500000e-01     3.500000e-01     3.500000e-01     3.500000e-01     3.500000e-01     
3.500000e-01     3.500000e-01     3.500000e-01     3.500000e-01     3.500000e-01     
3.500000e-01     3.500000e-01     3.500000e-01     3.500000e-01     3.500000e-01     
3.500000e-01     3.500000e-01     3.500000e-01     3.500000e-01     3.500000e-01     
3.500000e-01     3.500000e-01     3.500000e-01     3.500000e-01     3.500000e-01     
3.500000e-01     3.500000e-01     3.500000e-01     3.500000e-01     3.500000e-01     
3.500000e-01     3.500000e-01     3.500000e-01     3.500000e-01     3.500000e-01     
3.500000e-01     3.500000e-01     3.500000e-01     3.500000e-01     3.500000e-01     
3.500000e-01     3.500000e-01     3.000000e-01     3.000000e-01     3.000000e-01     
3.000000e-01     3.000000e-01     3.000000e-01     3.000000e-01     3.000000e-01     
3.000000e-01     3.000000e-01     3.000000e-01     3.000000e-01     3.000000e-01     
3.000000e-01     3.000000e-01     3.000000e-01     3.000000e-01     3.000000e-01     
3.000000e-01     3.000000e-01     3.000000e-01     3.000000e-01     3.000000e-01     
3.000000e-01     3.000000e-01     3.000000e-01     3.000000e-01     3.000000e-01     
3.000000e-01     3.000000e-01     3.000000e-01     3.000000e-01     3.000000e-01     
3.000000e-01     3.000000e-01     3.000000e-01     3.000000e-01     3.000000e-01     
3.000000e-01     3.000000e-01     3.000000e-01     3.000000e-01     3.000000e-01     
3.000000e-01     3.000000e-01     3.000000e-01     3.000000e-01     3.000000e-01     
3.000000e-01     3.000000e-01     3.000000e-01     3.000000e-01     3.000000e-01     
3.000000e-01     3.000000e-01     3.000000e-01     3.000000e-01     3.000000e-01     
3.000000e-01     3.000000e-01     3.000000e-01     3.000000e-01     2.500000e-01     
2.500000e-01     2.500000e-01     2.500000e-01     2.500000e-01     2.500000e-01     
2.500000e-01     2.500000e-01     2.500000e-01     2.500000e-01     2.500000e-01     
2.500000e-01     2.500000e-01     2.500000e-01     2.500000e-01     2.500000e-01     
2.500000e-01     2.500000e-01     2.500000e-01     2.500000e-01     2.500000e-01     
2.500000e-01     2.500000e-01     2.500000e-01     2.500000e-01     2.500000e-01     
2.500000e-01     2.500000e-01     2.500000e-01     2.500000e-01     2.500000e-01     
2.500000e-01     2.500000e-01     2.500000e-01     2.500000e-01     2.500000e-01     
2.500000e-01     2.500000e-01     2.500000e-01     2.500000e-01     2.500000e-01     
2.500000e-01     2.500000e-01     2.500000e-01     2.500000e-01     2.500000e-01     
2.500000e-01     2.500000e-01     2.500000e-01     2.500000e-01     2.500000e-01     
2.500000e-01     2.500000e-01     2.500000e-01     2.500000e-01     2.500000e-01     
2.500000e-01     2.500000e-01     2.500000e-01     2.000000e-01     2.000000e-01     
2.000000e-01     2.000000e-01     2.000000e-01     2.000000e-01     2.000000e-01     
2.000000e-01     2.000000e-01     2.000000e-01     2.000000e-01     2.000000e-01     
2.000000e-01     2.000000e-01     2.000000e-01     2.000000e-01     2.000000e-01     
2.000000e-01     2.000000e-01     2.000000e-01     2.000000e-01     2.000000e-01     
2.000000e-01     2.000000e-01     2.000000e-01     2.000000e-01     2.000000e-01     
2.000000e-01     2.000000e-01     2.000000e-01     2.000000e-01     2.000000e-01     
2.000000e-01     2.000000e-01     2.000000e-01     2.000000e-01     2.000000e-01     
2.000000e-01     2.000000e-01     2.000000e-01     2.000000e-01     2.000000e-01     
2.000000e-01     2.000000e-01     2.000000e-01     2.000000e-01     2.000000e-01     
2.000000e-01     2.000000e-01     2.000000e-01     1.500000e-01     1.500000e-01     
1.500000e-01     1.500000e-01     1.500000e-01     1.500000e-01     1.500000e-01     
1.500000e-01     1.500000e-01     1.500000e-01     1.500000e-01     1.500000e-01     
1.500000e-01     1.500000e-01     1.500000e-01     1.500000e-01     1.500000e-01     
1.500000e-01     1.500000e-01     1.500000e-01     1.500000e-01     1.500000e-01     
1.500000e-01     1.500000e-01     5.000000e-01     
4.000000e-01     
3.500000e-01     3.500000e-01     4.000000e-01     4.500000e-01     4.500000e-01     
5.000000e-01     5.000000e-01     3.500000e-01     3.500000e-01     4.000000e-01     
4.000000e-01     4.500000e-01     4.500000e-01     5.000000e-01     5.000000e-01     
3.000000e-01     2.500000e-01     2.500000e-01     3.000000e-01     3.500000e-01     
3.500000e-01     4.000000e-01     4.000000e-01     4.500000e-01     4.500000e-01     
5.000000e-01     5.000000e-01     2.500000e-01     2.500000e-01     2.000000e-01     
2.000000e-01     3.000000e-01     3.000000e-01     3.500000e-01     3.500000e-01     
4.000000e-01     4.000000e-01     4.500000e-01     4.500000e-01     5.000000e-01     
5.000000e-01     2.000000e-01     2.000000e-01     2.500000e-01     2.500000e-01     
3.000000e-01     3.000000e-01     3.500000e-01     3.500000e-01     4.000000e-01     
4.000000e-01     4.500000e-01     4.500000e-01     5.000000e-01     5.000000e-01     
3.000000e-01     3.000000e-01     3.500000e-01     3.500000e-01     4.000000e-01     
4.000000e-01     4.500000e-01     4.500000e-01     5.000000e-01     5.000000e-01     
3.000000e-01     3.000000e-01     3.500000e-01     3.500000e-01     4.000000e-01     
4.000000e-01     4.500000e-01     4.500000e-01     5.000000e-01     5.000000e-01     
3.000000e-01     3.000000e-01     3.500000e-01     3.500000e-01     4.000000e-01     
4.000000e-01     4.500000e-01     4.500000e-01     5.000000e-01     5.000000e-01     
3.000000e-01     3.000000e-01     3.500000e-01     3.500000e-01     4.000000e-01     
4.000000e-01     4.500000e-01     4.500000e-01     5.000000e-01     5.000000e-01     
3.000000e-01     3.000000e-01     3.500000e-01     3.500000e-01     4.000000e-01     
4.000000e-01     4.500000e-01     4.500000e-01     5.000000e-01     4.000000e-01     
3.500000e-01     4.500000e-01     5.000000e-01     3.500000e-01     4.000000e-01     
4.500000e-01     5.000000e-01     3.000000e-01     2.500000e-01     3.000000e-01     
2.500000e-01     3.500000e-01     4.000000e-01     4.500000e-01     5.000000e-01     
2.500000e-01     2.000000e-01     2.000000e-01     3.000000e-01     3.500000e-01     
4.000000e-01     4.500000e-01     5.000000e-01     2.000000e-01     2.500000e-01     
3.000000e-01     3.500000e-01     4.000000e-01     4.500000e-01     5.000000e-01     
2.000000e-01     2.500000e-01     3.000000e-01     3.500000e-01     4.000000e-01     
4.500000e-01     5.000000e-01     3.000000e-01     3.500000e-01     4.000000e-01     
4.500000e-01     5.000000e-01     3.000000e-01     3.500000e-01     4.000000e-01     
4.500000e-01     5.000000e-01     3.000000e-01     3.500000e-01     4.000000e-01     
4.500000e-01     5.000000e-01     3.000000e-01     3.500000e-01     4.000000e-01     
4.500000e-01     5.000000e-01     4.000000e-01     3.500000e-01     4.500000e-01     
5.000000e-01     3.000000e-01     2.500000e-01     3.500000e-01     4.000000e-01     
4.500000e-01     5.000000e-01     2.500000e-01     2.000000e-01     3.000000e-01     
3.500000e-01     4.000000e-01     4.500000e-01     5.000000e-01     2.000000e-01     
2.500000e-01     3.000000e-01     3.500000e-01     4.000000e-01     4.500000e-01     
5.000000e-01     2.000000e-01     2.500000e-01     3.000000e-01     3.500000e-01     
4.000000e-01     4.500000e-01     5.000000e-01     2.000000e-01     2.500000e-01     
3.000000e-01     3.500000e-01     4.000000e-01     4.500000e-01     5.000000e-01     
2.000000e-01     2.500000e-01     3.000000e-01     3.500000e-01     4.000000e-01     
4.500000e-01     5.000000e-01     3.000000e-01     3.500000e-01     4.000000e-01     
4.500000e-01     5.000000e-01     3.000000e-01     3.500000e-01     4.000000e-01     
4.500000e-01     5.000000e-01     3.000000e-01     3.500000e-01     4.000000e-01     
4.500000e-01     5.000000e-01     4.500000e-01     4.000000e-01     5.000000e-01     
3.000000e-01     2.500000e-01     3.500000e-01     4.000000e-01     4.500000e-01     
5.000000e-01     2.500000e-01     2.000000e-01     3.000000e-01     3.500000e-01     
4.000000e-01     4.500000e-01     5.000000e-01     2.000000e-01     2.500000e-01     
3.000000e-01     3.500000e-01     4.000000e-01     4.500000e-01     5.000000e-01     
2.000000e-01     2.500000e-01     3.000000e-01     3.500000e-01     4.000000e-01     
4.500000e-01     5.000000e-01     2.000000e-01     2.500000e-01     3.000000e-01     
3.500000e-01     4.000000e-01     4.500000e-01     5.000000e-01     2.000000e-01     
2.500000e-01     3.000000e-01     3.500000e-01     4.000000e-01     4.500000e-01     
5.000000e-01     3.000000e-01     2.500000e-01     3.500000e-01     4.000000e-01     
4.500000e-01     5.000000e-01     3.000000e-01     2.500000e-01     3.500000e-01     
4.000000e-01     4.500000e-01     5.000000e-01     3.000000e-01     2.500000e-01     
3.500000e-01     4.000000e-01     4.500000e-01     5.000000e-01     3.000000e-01     
2.500000e-01     3.500000e-01     4.000000e-01     4.500000e-01     5.000000e-01     
2.500000e-01     2.000000e-01     3.000000e-01     3.500000e-01     4.000000e-01     
4.500000e-01     5.000000e-01     2.000000e-01     2.500000e-01     3.000000e-01     
3.500000e-01     4.000000e-01     4.500000e-01     5.000000e-01     2.000000e-01     
2.500000e-01     3.000000e-01     3.500000e-01     4.000000e-01     4.500000e-01     
5.000000e-01     2.000000e-01     2.500000e-01     3.000000e-01     3.500000e-01     
4.000000e-01     4.500000e-01     5.000000e-01     2.000000e-01     2.500000e-01     
3.000000e-01     3.500000e-01     4.000000e-01     4.500000e-01     5.000000e-01     
2.500000e-01     3.000000e-01     3.500000e-01     4.000000e-01     4.500000e-01     
5.000000e-01     2.500000e-01     3.000000e-01     3.500000e-01     4.000000e-01     
4.500000e-01     5.000000e-01     2.500000e-01     3.000000e-01     3.500000e-01     
4.000000e-01     4.500000e-01     5.000000e-01     3.000000e-01     2.500000e-01     
3.500000e-01     4.000000e-01     4.500000e-01     5.000000e-01     2.500000e-01     
3.000000e-01     3.500000e-01     4.000000e-01     4.500000e-01     5.000000e-01     
2.500000e-01     3.000000e-01     3.500000e-01     4.000000e-01     4.500000e-01     
5.000000e-01     2.500000e-01     2.000000e-01     3.000000e-01     3.500000e-01     
4.000000e-01     4.500000e-01     5.000000e-01     2.000000e-01     2.500000e-01     
3.000000e-01     3.500000e-01     4.000000e-01     4.500000e-01     5.000000e-01     
2.000000e-01     2.500000e-01     3.000000e-01     3.500000e-01     4.000000e-01     
4.500000e-01     5.000000e-01     2.500000e-01     3.000000e-01     3.500000e-01     
4.000000e-01     4.500000e-01     2.500000e-01     3.000000e-01     3.500000e-01     
2.500000e-01     3.000000e-01     3.500000e-01     3.000000e-01     2.500000e-01     
3.500000e-01     4.000000e-01     4.500000e-01     5.000000e-01     2.500000e-01     
2.000000e-01     3.000000e-01     3.500000e-01     4.000000e-01     4.500000e-01     
5.000000e-01     2.000000e-01     2.500000e-01     3.000000e-01     3.500000e-01     
4.000000e-01     4.500000e-01     5.000000e-01     2.000000e-01     2.500000e-01     
3.000000e-01     3.500000e-01     5.000000e-01     
-5.000000e-02     
-5.000000e-02     -5.000000e-02     -5.000000e-02     -5.000000e-02     -5.000000e-02     
-5.000000e-02     -5.000000e-02     -1.000000e-01     -1.000000e-01     -1.000000e-01     
-1.000000e-01     -1.000000e-01     -1.000000e-01     -1.000000e-01     -1.000000e-01     
-1.500000e-01     -1.500000e-01     -1.500000e-01     -1.500000e-01     -1.500000e-01     
-1.500000e-01     -1.500000e-01     -1.500000e-01     -1.500000e-01     -1.500000e-01     
-1.500000e-01     -1.500000e-01     -2.000000e-01     -2.000000e-01     -2.000000e-01     
-2.000000e-01     -2.000000e-01     -2.000000e-01     -2.000000e-01     -2.000000e-01     
-2.000000e-01     -2.000000e-01     -2.000000e-01     -2.000000e-01     -2.000000e-01     
-2.000000e-01     -2.500000e-01     -2.500000e-01     -2.500000e-01     -2.500000e-01     
-2.500000e-01     -2.500000e-01     -2.500000e-01     -2.500000e-01     -2.500000e-01     
-2.500000e-01     -2.500000e-01     -2.500000e-01     -2.500000e-01     -2.500000e-01     
-3.000000e-01     -3.000000e-01     -3.000000e-01     -3.000000e-01     -3.000000e-01     
-3.000000e-01     -3.000000e-01     -3.000000e-01     -3.000000e-01     -3.000000e-01     
-3.500000e-01     -3.500000e-01     -3.500000e-01     -3.500000e-01     -3.500000e-01     
-3.500000e-01     -3.500000e-01     -3.500000e-01     -3.500000e-01     -3.500000e-01     
-4.000000e-01     -4.000000e-01     -4.000000e-01     -4.000000e-01     -4.000000e-01     
-4.000000e-01     -4.000000e-01     -4.000000e-01     -4.000000e-01     -4.000000e-01     
-4.500000e-01     -4.500000e-01     -4.500000e-01     -4.500000e-01     -4.500000e-01     
-4.500000e-01     -4.500000e-01     -4.500000e-01     -4.500000e-01     -4.500000e-01     
-5.000000e-01     -5.000000e-01     -5.000000e-01     -5.000000e-01     -5.000000e-01     
-5.000000e-01     -5.000000e-01     -5.000000e-01     -5.000000e-01     -5.000000e-02     
-5.000000e-02     -5.000000e-02     -5.000000e-02     -1.000000e-01     -1.000000e-01     
-1.000000e-01     -1.000000e-01     -1.500000e-01     -1.500000e-01     -1.000000e-01     
-1.000000e-01     -1.500000e-01     -1.500000e-01     -1.500000e-01     -1.500000e-01     
-2.000000e-01     -2.000000e-01     -1.500000e-01     -2.000000e-01     -2.000000e-01     
-2.000000e-01     -2.000000e-01     -2.000000e-01     -2.500000e-01     -2.500000e-01     
-2.500000e-01     -2.500000e-01     -2.500000e-01     -2.500000e-01     -2.500000e-01     
-3.000000e-01     -3.000000e-01     -3.000000e-01     -3.000000e-01     -3.000000e-01     
-3.000000e-01     -3.000000e-01     -3.500000e-01     -3.500000e-01     -3.500000e-01     
-3.500000e-01     -3.500000e-01     -4.000000e-01     -4.000000e-01     -4.000000e-01     
-4.000000e-01     -4.000000e-01     -4.500000e-01     -4.500000e-01     -4.500000e-01     
-4.500000e-01     -4.500000e-01     -5.000000e-01     -5.000000e-01     -5.000000e-01     
-5.000000e-01     -5.000000e-01     -5.000000e-02     -5.000000e-02     -5.000000e-02     
-5.000000e-02     -1.000000e-01     -1.000000e-01     -1.000000e-01     -1.000000e-01     
-1.000000e-01     -1.000000e-01     -1.500000e-01     -1.500000e-01     -1.500000e-01     
-1.500000e-01     -1.500000e-01     -1.500000e-01     -1.500000e-01     -2.000000e-01     
-2.000000e-01     -2.000000e-01     -2.000000e-01     -2.000000e-01     -2.000000e-01     
-2.000000e-01     -2.500000e-01     -2.500000e-01     -2.500000e-01     -2.500000e-01     
-2.500000e-01     -2.500000e-01     -2.500000e-01     -3.000000e-01     -3.000000e-01     
-3.000000e-01     -3.000000e-01     -3.000000e-01     -3.000000e-01     -3.000000e-01     
-3.500000e-01     -3.500000e-01     -3.500000e-01     -3.500000e-01     -3.500000e-01     
-3.500000e-01     -3.500000e-01     -4.000000e-01     -4.000000e-01     -4.000000e-01     
-4.000000e-01     -4.000000e-01     -4.500000e-01     -4.500000e-01     -4.500000e-01     
-4.500000e-01     -4.500000e-01     -5.000000e-01     -5.000000e-01     -5.000000e-01     
-5.000000e-01     -5.000000e-01     -5.000000e-02     -5.000000e-02     -5.000000e-02     
-1.000000e-01     -1.000000e-01     -1.000000e-01     -1.000000e-01     -1.000000e-01     
-1.000000e-01     -1.500000e-01     -1.500000e-01     -1.500000e-01     -1.500000e-01     
-1.500000e-01     -1.500000e-01     -1.500000e-01     -2.000000e-01     -2.000000e-01     
-2.000000e-01     -2.000000e-01     -2.000000e-01     -2.000000e-01     -2.000000e-01     
-2.500000e-01     -2.500000e-01     -2.500000e-01     -2.500000e-01     -2.500000e-01     
-2.500000e-01     -2.500000e-01     -3.000000e-01     -3.000000e-01     -3.000000e-01     
-3.000000e-01     -3.000000e-01     -3.000000e-01     -3.000000e-01     -3.500000e-01     
-3.500000e-01     -3.500000e-01     -3.500000e-01     -3.500000e-01     -3.500000e-01     
-3.500000e-01     -4.000000e-01     -4.000000e-01     -4.000000e-01     -4.000000e-01     
-4.000000e-01     -4.000000e-01     -4.500000e-01     -4.500000e-01     -4.500000e-01     
-4.500000e-01     -4.500000e-01     -4.500000e-01     -5.000000e-01     -5.000000e-01     
-5.000000e-01     -5.000000e-01     -5.000000e-01     -5.000000e-01     -1.000000e-01     
-1.000000e-01     -1.000000e-01     -1.000000e-01     -1.000000e-01     -1.000000e-01     
-1.500000e-01     -1.500000e-01     -1.500000e-01     -1.500000e-01     -1.500000e-01     
-1.500000e-01     -1.500000e-01     -2.000000e-01     -2.000000e-01     -2.000000e-01     
-2.000000e-01     -2.000000e-01     -2.000000e-01     -2.000000e-01     -2.500000e-01     
-2.500000e-01     -2.500000e-01     -2.500000e-01     -2.500000e-01     -2.500000e-01     
-2.500000e-01     -3.000000e-01     -3.000000e-01     -3.000000e-01     -3.000000e-01     
-3.000000e-01     -3.000000e-01     -3.000000e-01     -3.500000e-01     -3.500000e-01     
-3.500000e-01     -3.500000e-01     -3.500000e-01     -3.500000e-01     -3.500000e-01     
-4.000000e-01     -4.000000e-01     -4.000000e-01     -4.000000e-01     -4.000000e-01     
-4.000000e-01     -4.500000e-01     -4.500000e-01     -4.500000e-01     -4.500000e-01     
-4.500000e-01     -4.500000e-01     -5.000000e-01     -5.000000e-01     -5.000000e-01     
-5.000000e-01     -5.000000e-01     -5.000000e-01     -1.000000e-01     -1.000000e-01     
-1.000000e-01     -1.000000e-01     -1.000000e-01     -1.000000e-01     -1.500000e-01     
-1.500000e-01     -1.500000e-01     -1.500000e-01     -1.500000e-01     -1.500000e-01     
-2.000000e-01     -2.000000e-01     -2.000000e-01     -2.000000e-01     -2.000000e-01     
-2.000000e-01     -2.500000e-01     -2.500000e-01     -2.500000e-01     -2.500000e-01     
-2.500000e-01     -2.500000e-01     -2.500000e-01     -3.000000e-01     -3.000000e-01     
-3.000000e-01     -3.000000e-01     -3.000000e-01     -3.000000e-01     -3.000000e-01     
-3.500000e-01     -3.500000e-01     -3.500000e-01     -3.500000e-01     -3.500000e-01     
-3.500000e-01     -3.500000e-01     -4.000000e-01     -4.000000e-01     -4.000000e-01     
-4.000000e-01     -4.000000e-01     -4.500000e-01     -4.500000e-01     -4.500000e-01     
-5.000000e-01     -5.000000e-01     -5.000000e-01     -2.000000e-01     -2.000000e-01     
-2.000000e-01     -2.000000e-01     -2.000000e-01     -2.000000e-01     -2.500000e-01     
-2.500000e-01     -2.500000e-01     -2.500000e-01     -2.500000e-01     -2.500000e-01     
-2.500000e-01     -3.000000e-01     -3.000000e-01     -3.000000e-01     -3.000000e-01     
-3.000000e-01     -3.000000e-01     -3.000000e-01     -3.500000e-01     -3.500000e-01     
-3.500000e-01     -3.500000e-01     -5.000000e-01     

0      
0      0      0      0      0      0      0      0      0      0      
0      0      0      0      0      0      0      0      0      0      
0      0      0      0      0      0      0      0      0      0      
0      0      0      0      0      0      0      0      0      0      
0      0      0      0      0      0      0      0      0      0      
0      0      0      0      0      0      0      0      0      0      
0      0      0      0      0      0      0      0      0      0      
0      0      0      0      0      0      0      0      0      0      
0      0      0      0      0      0      0      0      0      0      
0      0      0      0      0      0      0      0      0      0      
0      0      0      0      0      0      0      0      0      0      
0      0      0      0      0      0      0      0      0      0      
0      0      0      0      0      0      0      0      0      0      
0      0      0      0      0      0      0      0      0      0      
0      0      0      0      0      0      0      0      0      0      
0      0      0      0      0      0      0      0      0      0      
0      0      0      0      0      0      0      0      0      0      
0      0      0      0      0      0      0      0      0      0      
0      0      0      0      0      0      0      0      0      0      
0      0      0      0      0      0      0      0      0      0      
0      0      0      0      0      0      0      0      0      0      
0      0      0      0      0      0      0      0      0      0      
0      0      0      0      0      0      0      0      0      0      
0      0      0      0      0      0      0      0      0      0      
0      0      0      0      0      0      0      0      0      0      
1      1      1      1      1      1      1      1      1      1      
1      1      1      1      1      1      1      1      1      1      
1      1      1      1      1      1      1      1      1      1      
1      1      1      1      1      1      1      1      1      1      
1      1      1      1      1      1      1      1      1      1      
1      1      1      1      1      1      1      1      1      1      
1      1      1      1      1      1      1      1      1      1      
1      1      1      1      1      1      1      1      1      1      
1      1      1      1      1      1      1      1      1      1      
1      1      1      1      1      1      1      1      1      1      
1      1      1      1      1      1      1      1      1      1      
1      1      1      1      1      1      1      1      1      1      
1      1      1      1      1      1      1      1      1      1      
1      1      1      1      1      1      1      1      1      1      
1      1      1      1      1      1      1      1      1      1      
1      1      1      1      1      1      1      1      1      1      
1      1      1      1      1      1      1      1      1      1      
1      1      1      1      1      1      1      1      1      1      
1      1      1      1      1      1      1      1      1      1      
1      1      1      1      1      1      1      1      1      1      
1      1      1      1      1      1      1      1      1      1      
1      1      1      1      1      1      1      1      1      1      
1      1      1      1      1      1      1      1      1      1      
1      1      1      1      1      1      1      1      1      1      
1      1      1      1      1      1      1      1      1      1      
1      1      1      1      1      1      1      1      1      1      
1      1      1      1      1      1      1      1      1      1      
1      1      1      1      1      1      1      1      1      1      
1      1      1      1      1      1      1      1      1      1      


1      11      12      4      5      13      14      6      
4      12      11      1      3      10      9      2      
11      9      10      12      23      21      22      24      
9      11      1      2      110      111      106      107      
5      13      14      6      7      15      16      8      
13      11      12      14      25      23      24      26      
11      13      5      1      111      112      108      106      
15      13      14      16      27      25      26      28      
13      15      7      5      112      113      109      108      
23      21      22      24      37      35      36      38      
21      23      11      9      118      119      111      110      
25      23      24      26      39      37      38      40      
23      25      13      11      119      120      112      111      
27      25      26      28      41      39      40      42      
25      27      15      13      120      121      113      112      
17      33      34      20      21      35      36      22      
20      34      33      17      19      30      29      18      
33      29      30      34      47      45      46      48      
29      33      17      18      122      125      114      115      
35      33      34      36      49      47      48      50      
33      35      21      17      125      126      118      114      
37      35      36      38      51      49      50      52      
35      37      23      21      126      127      119      118      
39      37      38      40      53      51      52      54      
37      39      25      23      127      128      120      119      
41      39      40      42      55      53      54      56      
39      41      27      25      128      129      121      120      
30      46      45      29      32      44      43      31      
43      45      29      31      130      131      122      123      
45      47      33      29      131      132      125      122      
49      47      48      50      59      57      58      60      
47      49      35      33      132      133      126      125      
51      49      50      52      61      59      60      62      
49      51      37      35      133      134      127      126      
53      51      52      54      63      61      62      64      
51      53      39      37      134      135      128      127      
55      53      54      56      65      63      64      66      
53      55      41      39      135      136      129      128      
59      57      58      60      69      67      68      70      
57      59      49      47      139      140      133      132      
61      59      60      62      71      69      70      72      
59      61      51      49      140      141      134      133      
63      61      62      64      73      71      72      74      
61      63      53      51      141      142      135      134      
65      63      64      66      75      73      74      76      
63      65      55      53      142      143      136      135      
69      67      68      70      79      77      78      80      
67      69      59      57      144      145      140      139      
71      69      70      72      81      79      80      82      
69      71      61      59      145      146      141      140      
73      71      72      74      83      81      82      84      
71      73      63      61      146      147      142      141      
75      73      74      76      85      83      84      86      
73      75      65      63      147      148      143      142      
79      77      78      80      89      87      88      90      
77      79      69      67      149      150      145      144      
81      79      80      82      91      89      90      92      
79      81      71      69      150      151      146      145      
83      81      82      84      93      91      92      94      