title = " tecplot file for process Mesh " 
variables = "x",  "y", "z", "cell_type" 
zone N = 396 E = 500 DATAPACKING = BLOCK,  VARLOCATION = ([4]=CELLCENTERED), ZONETYPE=FEBRICK 
-2.500000e-01     
-2.500000e-01     -2.500000e-01     -2.500000e-01     -2.500000e-01     -2.500000e-01     
-2.500000e-01     -2.500000e-01     -2.500000e-01     -2.500000e-01     -2.500000e-01     
-2.500000e-01     -2.500000e-01     -2.500000e-01     -2.500000e-01     -2.500000e-01     
-2.500000e-01     -2.500000e-01     -2.500000e-01     -2.500000e-01     -2.500000e-01     
-2.500000e-01     -2.500000e-01     -2.500000e-01     -2.500000e-01     -2.500000e-01     
-2.500000e-01     -2.500000e-01     -2.500000e-01     -2.500000e-01     -2.500000e-01     
-2.500000e-01     -2.500000e-01     -2.500000e-01     -2.500000e-01     -2.500000e-01     
-2.500000e-01     -2.500000e-01     -2.500000e-01     -2.500000e-01     -2.500000e-01     
-2.500000e-01     -2.500000e-01     -2.500000e-01     -2.500000e-01     -2.500000e-01     
-2.500000e-01     -2.500000e-01     -2.500000e-01     -2.500000e-01     -2.500000e-01     
-2.500000e-01     -2.500000e-01     -2.500000e-01     -2.500000e-01     -2.500000e-01     
-2.500000e-01     -2.500000e-01     -2.500000e-01     -2.500000e-01     -2.500000e-01     
-2.500000e-01     -2.500000e-01     -2.500000e-01     -2.500000e-01     -2.500000e-01     
-3.000000e-01     -3.000000e-01     -3.000000e-01     -3.000000e-01     -3.000000e-01     
-3.000000e-01     -3.000000e-01     -3.000000e-01     -3.000000e-01     -3.000000e-01     
-3.000000e-01     -3.000000e-01     -3.000000e-01     -3.000000e-01     -3.000000e-01     
-3.000000e-01     -3.000000e-01     -3.000000e-01     -3.000000e-01     -3.000000e-01     
-3.000000e-01     -3.000000e-01     -3.000000e-01     -3.000000e-01     -3.000000e-01     
-3.000000e-01     -3.000000e-01     -3.000000e-01     -3.000000e-01     -3.000000e-01     
-3.000000e-01     -3.000000e-01     -3.000000e-01     -3.000000e-01     -3.000000e-01     
-3.000000e-01     -3.000000e-01     -3.000000e-01     -3.000000e-01     -3.000000e-01     
-3.000000e-01     -3.000000e-01     -3.000000e-01     -3.000000e-01     -3.000000e-01     
-3.000000e-01     -3.000000e-01     -3.000000e-01     -3.000000e-01     -3.000000e-01     
-3.000000e-01     -3.000000e-01     -3.000000e-01     -3.000000e-01     -3.000000e-01     
-3.000000e-01     -3.000000e-01     -3.000000e-01     -3.000000e-01     -3.000000e-01     
-3.000000e-01     -3.000000e-01     -3.000000e-01     -3.000000e-01     -3.000000e-01     
-3.000000e-01     -3.500000e-01     -3.500000e-01     -3.500000e-01     -3.500000e-01     
-3.500000e-01     -3.500000e-01     -3.500000e-01     -3.500000e-01     -3.500000e-01     
-3.500000e-01     -3.500000e-01     -3.500000e-01     -3.500000e-01     -3.500000e-01     
-3.500000e-01     -3.500000e-01     -3.500000e-01     -3.500000e-01     -3.500000e-01     
-3.500000e-01     -3.500000e-01     -3.500000e-01     -3.500000e-01     -3.500000e-01     
-3.500000e-01     -3.500000e-01     -3.500000e-01     -3.500000e-01     -3.500000e-01     
-3.500000e-01     -3.500000e-01     -3.500000e-01     -3.500000e-01     -3.500000e-01     
-3.500000e-01     -3.500000e-01     -3.500000e-01     -3.500000e-01     -3.500000e-01     
-3.500000e-01     -3.500000e-01     -3.500000e-01     -3.500000e-01     -3.500000e-01     
-3.500000e-01     -3.500000e-01     -3.500000e-01     -3.500000e-01     -3.500000e-01     
-3.500000e-01     -3.500000e-01     -3.500000e-01     -3.500000e-01     -3.500000e-01     
-3.500000e-01     -3.500000e-01     -3.500000e-01     -3.500000e-01     -3.500000e-01     
-3.500000e-01     -3.500000e-01     -3.500000e-01     -3.500000e-01     -3.500000e-01     
-3.500000e-01     -3.500000e-01     -4.000000e-01     -4.000000e-01     -4.000000e-01     
-4.000000e-01     -4.000000e-01     -4.000000e-01     -4.000000e-01     -4.000000e-01     
-4.000000e-01     -4.000000e-01     -4.000000e-01     -4.000000e-01     -4.000000e-01     
-4.000000e-01     -4.000000e-01     -4.000000e-01     -4.000000e-01     -4.000000e-01     
-4.000000e-01     -4.000000e-01     -4.000000e-01     -4.000000e-01     -4.000000e-01     
-4.000000e-01     -4.000000e-01     -4.000000e-01     -4.000000e-01     -4.000000e-01     
-4.000000e-01     -4.000000e-01     -4.000000e-01     -4.000000e-01     -4.000000e-01     
-4.000000e-01     -4.000000e-01     -4.000000e-01     -4.000000e-01     -4.000000e-01     
-4.000000e-01     -4.000000e-01     -4.000000e-01     -4.000000e-01     -4.000000e-01     
-4.000000e-01     -4.000000e-01     -4.000000e-01     -4.000000e-01     -4.000000e-01     
-4.000000e-01     -4.000000e-01     -4.000000e-01     -4.000000e-01     -4.000000e-01     
-4.000000e-01     -4.000000e-01     -4.000000e-01     -4.000000e-01     -4.000000e-01     
-4.000000e-01     -4.000000e-01     -4.000000e-01     -4.000000e-01     -4.000000e-01     
-4.000000e-01     -4.000000e-01     -4.000000e-01     -4.500000e-01     -4.500000e-01     
-4.500000e-01     -4.500000e-01     -4.500000e-01     -4.500000e-01     -4.500000e-01     
-4.500000e-01     -4.500000e-01     -4.500000e-01     -4.500000e-01     -4.500000e-01     
-4.500000e-01     -4.500000e-01     -4.500000e-01     -4.500000e-01     -4.500000e-01     
-4.500000e-01     -4.500000e-01     -4.500000e-01     -4.500000e-01     -4.500000e-01     
-4.500000e-01     -4.500000e-01     -4.500000e-01     -4.500000e-01     -4.500000e-01     
-4.500000e-01     -4.500000e-01     -4.500000e-01     -4.500000e-01     -4.500000e-01     
-4.500000e-01     -4.500000e-01     -4.500000e-01     -4.500000e-01     -4.500000e-01     
-4.500000e-01     -4.500000e-01     -4.500000e-01     -4.500000e-01     -4.500000e-01     
-4.500000e-01     -4.500000e-01     -4.500000e-01     -4.500000e-01     -4.500000e-01     
-4.500000e-01     -4.500000e-01     -4.500000e-01     -4.500000e-01     -4.500000e-01     
-4.500000e-01     -4.500000e-01     -4.500000e-01     -4.500000e-01     -4.500000e-01     
-4.500000e-01     -4.500000e-01     -4.500000e-01     -4.500000e-01     -4.500000e-01     
-4.500000e-01     -4.500000e-01     -4.500000e-01     -4.500000e-01     -5.000000e-01     
-5.000000e-01     -5.000000e-01     -5.000000e-01     -5.000000e-01     -5.000000e-01     
-5.000000e-01     -5.000000e-01     -5.000000e-01     -5.000000e-01     -5.000000e-01     
-5.000000e-01     -5.000000e-01     -5.000000e-01     -5.000000e-01     -5.000000e-01     
-5.000000e-01     -5.000000e-01     -5.000000e-01     -5.000000e-01     -5.000000e-01     
-5.000000e-01     -5.000000e-01     -5.000000e-01     -5.000000e-01     -5.000000e-01     
-5.000000e-01     -5.000000e-01     -5.000000e-01     -5.000000e-01     -5.000000e-01     
-5.000000e-01     -5.000000e-01     -5.000000e-01     -5.000000e-01     -5.000000e-01     
-5.000000e-01     -5.000000e-01     -5.000000e-01     -5.000000e-01     -5.000000e-01     
-5.000000e-01     -5.000000e-01     -5.000000e-01     -5.000000e-01     -5.000000e-01     
-5.000000e-01     -5.000000e-01     -5.000000e-01     -5.000000e-01     -5.000000e-01     
-5.000000e-01     -5.000000e-01     -5.000000e-01     -5.000000e-01     -5.000000e-01     
-5.000000e-01     -5.000000e-01     -5.000000e-01     -5.000000e-01     -5.000000e-01     
-5.000000e-01     -5.000000e-01     -5.000000e-01     -5.000000e-01     -5.000000e-01     

9.540979e-18     
5.000000e-02     5.000000e-02     0.000000e+00     1.000000e-01     1.000000e-01     
1.500000e-01     1.500000e-01     2.000000e-01     2.000000e-01     2.500000e-01     
2.500000e-01     3.000000e-01     3.000000e-01     3.500000e-01     3.500000e-01     
4.000000e-01     4.000000e-01     4.500000e-01     4.500000e-01     5.000000e-01     
5.000000e-01     5.204170e-18     5.000000e-02     1.000000e-01     1.500000e-01     
2.000000e-01     2.500000e-01     3.000000e-01     3.500000e-01     4.000000e-01     
4.500000e-01     5.000000e-01     -6.938894e-18     5.000000e-02     1.000000e-01     
1.500000e-01     2.000000e-01     2.500000e-01     3.000000e-01     3.500000e-01     
4.000000e-01     4.500000e-01     5.000000e-01     -1.387779e-17     5.000000e-02     
1.000000e-01     1.500000e-01     2.000000e-01     2.500000e-01     3.000000e-01     
3.500000e-01     4.000000e-01     4.500000e-01     5.000000e-01     -3.469447e-18     
5.000000e-02     1.000000e-01     1.500000e-01     2.000000e-01     2.500000e-01     
3.000000e-01     3.500000e-01     4.000000e-01     4.500000e-01     5.000000e-01     
0.000000e+00     1.144917e-17     5.000000e-02     5.000000e-02     1.000000e-01     
1.000000e-01     1.500000e-01     1.500000e-01     2.000000e-01     2.000000e-01     
2.500000e-01     2.500000e-01     3.000000e-01     3.000000e-01     3.500000e-01     
3.500000e-01     4.000000e-01     4.000000e-01     4.500000e-01     4.500000e-01     
5.000000e-01     5.000000e-01     6.245005e-18     5.000000e-02     1.000000e-01     
1.500000e-01     2.000000e-01     2.500000e-01     3.000000e-01     3.500000e-01     
4.000000e-01     4.500000e-01     5.000000e-01     -8.326673e-18     5.000000e-02     
1.000000e-01     1.500000e-01     2.000000e-01     2.500000e-01     3.000000e-01     
3.500000e-01     4.000000e-01     4.500000e-01     5.000000e-01     -1.665335e-17     
5.000000e-02     1.000000e-01     1.500000e-01     2.000000e-01     2.500000e-01     
3.000000e-01     3.500000e-01     4.000000e-01     4.500000e-01     5.000000e-01     
-4.163336e-18     5.000000e-02     1.000000e-01     1.500000e-01     2.000000e-01     
2.500000e-01     3.000000e-01     3.500000e-01     4.000000e-01     4.500000e-01     
5.000000e-01     0.000000e+00     1.335737e-17     5.000000e-02     5.000000e-02     
1.000000e-01     1.000000e-01     1.500000e-01     1.500000e-01     2.000000e-01     
2.000000e-01     2.500000e-01     2.500000e-01     3.000000e-01     3.000000e-01     
3.500000e-01     3.500000e-01     4.000000e-01     4.000000e-01     4.500000e-01     
4.500000e-01     5.000000e-01     5.000000e-01     7.285839e-18     5.000000e-02     
1.000000e-01     1.500000e-01     2.000000e-01     2.500000e-01     3.000000e-01     
3.500000e-01     4.000000e-01     4.500000e-01     5.000000e-01     -9.714451e-18     
5.000000e-02     1.000000e-01     1.500000e-01     2.000000e-01     2.500000e-01     
3.000000e-01     3.500000e-01     4.000000e-01     4.500000e-01     5.000000e-01     
-1.942890e-17     5.000000e-02     1.000000e-01     1.500000e-01     2.000000e-01     
2.500000e-01     3.000000e-01     3.500000e-01     4.000000e-01     4.500000e-01     
5.000000e-01     -4.857226e-18     5.000000e-02     1.000000e-01     1.500000e-01     
2.000000e-01     2.500000e-01     3.000000e-01     3.500000e-01     4.000000e-01     
4.500000e-01     5.000000e-01     0.000000e+00     1.526557e-17     5.000000e-02     
5.000000e-02     1.000000e-01     1.000000e-01     1.500000e-01     1.500000e-01     
2.000000e-01     2.000000e-01     2.500000e-01     2.500000e-01     3.000000e-01     
3.000000e-01     3.500000e-01     3.500000e-01     4.000000e-01     4.000000e-01     
4.500000e-01     4.500000e-01     5.000000e-01     5.000000e-01     8.326673e-18     
5.000000e-02     1.000000e-01     1.500000e-01     2.000000e-01     2.500000e-01     
3.000000e-01     3.500000e-01     4.000000e-01     4.500000e-01     5.000000e-01     
-1.110223e-17     5.000000e-02     1.000000e-01     1.500000e-01     2.000000e-01     
2.500000e-01     3.000000e-01     3.500000e-01     4.000000e-01     4.500000e-01     
5.000000e-01     -2.220446e-17     5.000000e-02     1.000000e-01     1.500000e-01     
2.000000e-01     2.500000e-01     3.000000e-01     3.500000e-01     4.000000e-01     
4.500000e-01     5.000000e-01     -5.551115e-18     5.000000e-02     1.000000e-01     
1.500000e-01     2.000000e-01     2.500000e-01     3.000000e-01     3.500000e-01     
4.000000e-01     4.500000e-01     5.000000e-01     0.000000e+00     1.717376e-17     
5.000000e-02     5.000000e-02     1.000000e-01     1.000000e-01     1.500000e-01     
1.500000e-01     2.000000e-01     2.000000e-01     2.500000e-01     2.500000e-01     
3.000000e-01     3.000000e-01     3.500000e-01     3.500000e-01     4.000000e-01     
4.000000e-01     4.500000e-01     4.500000e-01     5.000000e-01     5.000000e-01     
9.367507e-18     5.000000e-02     1.000000e-01     1.500000e-01     2.000000e-01     
2.500000e-01     3.000000e-01     3.500000e-01     4.000000e-01     4.500000e-01     
5.000000e-01     -1.249001e-17     5.000000e-02     1.000000e-01     1.500000e-01     
2.000000e-01     2.500000e-01     3.000000e-01     3.500000e-01     4.000000e-01     
4.500000e-01     5.000000e-01     -2.498002e-17     5.000000e-02     1.000000e-01     
1.500000e-01     2.000000e-01     2.500000e-01     3.000000e-01     3.500000e-01     
4.000000e-01     4.500000e-01     5.000000e-01     -6.245005e-18     5.000000e-02     
1.000000e-01     1.500000e-01     2.000000e-01     2.500000e-01     3.000000e-01     
3.500000e-01     4.000000e-01     4.500000e-01     5.000000e-01     0.000000e+00     
1.908196e-17     5.000000e-02     5.000000e-02     1.000000e-01     1.000000e-01     
1.500000e-01     1.500000e-01     2.000000e-01     2.000000e-01     2.500000e-01     
2.500000e-01     3.000000e-01     3.000000e-01     3.500000e-01     3.500000e-01     
4.000000e-01     4.000000e-01     4.500000e-01     4.500000e-01     5.000000e-01     
1.040834e-17     5.000000e-02     1.000000e-01     1.500000e-01     2.000000e-01     
2.500000e-01     3.000000e-01     3.500000e-01     4.000000e-01     4.500000e-01     
5.000000e-01     -1.387779e-17     5.000000e-02     1.000000e-01     1.500000e-01     
2.000000e-01     2.500000e-01     3.000000e-01     3.500000e-01     4.000000e-01     
4.500000e-01     5.000000e-01     -2.775558e-17     5.000000e-02     1.000000e-01     
1.500000e-01     2.000000e-01     2.500000e-01     3.000000e-01     3.500000e-01     
4.000000e-01     4.500000e-01     5.000000e-01     -6.938894e-18     5.000000e-02     
1.000000e-01     1.500000e-01     2.000000e-01     2.500000e-01     3.000000e-01     
3.500000e-01     4.000000e-01     4.500000e-01     5.000000e-01     5.000000e-01     

4.500000e-01     
4.500000e-01     5.000000e-01     5.000000e-01     4.500000e-01     5.000000e-01     
4.500000e-01     5.000000e-01     4.500000e-01     5.000000e-01     4.500000e-01     
5.000000e-01     4.500000e-01     5.000000e-01     4.500000e-01     5.000000e-01     
4.500000e-01     5.000000e-01     4.500000e-01     5.000000e-01     4.500000e-01     
5.000000e-01     4.000000e-01     4.000000e-01     4.000000e-01     4.000000e-01     
4.000000e-01     4.000000e-01     4.000000e-01     4.000000e-01     4.000000e-01     
4.000000e-01     4.000000e-01     3.500000e-01     3.500000e-01     3.500000e-01     
3.500000e-01     3.500000e-01     3.500000e-01     3.500000e-01     3.500000e-01     
3.500000e-01     3.500000e-01     3.500000e-01     3.000000e-01     3.000000e-01     
3.000000e-01     3.000000e-01     3.000000e-01     3.000000e-01     3.000000e-01     
3.000000e-01     3.000000e-01     3.000000e-01     3.000000e-01     2.500000e-01     
2.500000e-01     2.500000e-01     2.500000e-01     2.500000e-01     2.500000e-01     
2.500000e-01     2.500000e-01     2.500000e-01     2.500000e-01     2.500000e-01     
5.000000e-01     4.500000e-01     5.000000e-01     4.500000e-01     5.000000e-01     
4.500000e-01     5.000000e-01     4.500000e-01     5.000000e-01     4.500000e-01     
5.000000e-01     4.500000e-01     5.000000e-01     4.500000e-01     5.000000e-01     
4.500000e-01     5.000000e-01     4.500000e-01     5.000000e-01     4.500000e-01     
4.500000e-01     5.000000e-01     4.000000e-01     4.000000e-01     4.000000e-01     
4.000000e-01     4.000000e-01     4.000000e-01     4.000000e-01     4.000000e-01     
4.000000e-01     4.000000e-01     4.000000e-01     3.500000e-01     3.500000e-01     
3.500000e-01     3.500000e-01     3.500000e-01     3.500000e-01     3.500000e-01     
3.500000e-01     3.500000e-01     3.500000e-01     3.500000e-01     3.000000e-01     
3.000000e-01     3.000000e-01     3.000000e-01     3.000000e-01     3.000000e-01     
3.000000e-01     3.000000e-01     3.000000e-01     3.000000e-01     3.000000e-01     
2.500000e-01     2.500000e-01     2.500000e-01     2.500000e-01     2.500000e-01     
2.500000e-01     2.500000e-01     2.500000e-01     2.500000e-01     2.500000e-01     
2.500000e-01     5.000000e-01     4.500000e-01     5.000000e-01     4.500000e-01     
5.000000e-01     4.500000e-01     5.000000e-01     4.500000e-01     5.000000e-01     
4.500000e-01     5.000000e-01     4.500000e-01     5.000000e-01     4.500000e-01     
5.000000e-01     4.500000e-01     5.000000e-01     4.500000e-01     5.000000e-01     
4.500000e-01     4.500000e-01     5.000000e-01     4.000000e-01     4.000000e-01     
4.000000e-01     4.000000e-01     4.000000e-01     4.000000e-01     4.000000e-01     
4.000000e-01     4.000000e-01     4.000000e-01     4.000000e-01     3.500000e-01     
3.500000e-01     3.500000e-01     3.500000e-01     3.500000e-01     3.500000e-01     
3.500000e-01     3.500000e-01     3.500000e-01     3.500000e-01     3.500000e-01     
3.000000e-01     3.000000e-01     3.000000e-01     3.000000e-01     3.000000e-01     
3.000000e-01     3.000000e-01     3.000000e-01     3.000000e-01     3.000000e-01     
3.000000e-01     2.500000e-01     2.500000e-01     2.500000e-01     2.500000e-01     
2.500000e-01     2.500000e-01     2.500000e-01     2.500000e-01     2.500000e-01     
2.500000e-01     2.500000e-01     5.000000e-01     4.500000e-01     5.000000e-01     
4.500000e-01     5.000000e-01     4.500000e-01     5.000000e-01     4.500000e-01     
5.000000e-01     4.500000e-01     5.000000e-01     4.500000e-01     5.000000e-01     
4.500000e-01     5.000000e-01     4.500000e-01     5.000000e-01     4.500000e-01     
5.000000e-01     4.500000e-01     4.500000e-01     5.000000e-01     4.000000e-01     
4.000000e-01     4.000000e-01     4.000000e-01     4.000000e-01     4.000000e-01     
4.000000e-01     4.000000e-01     4.000000e-01     4.000000e-01     4.000000e-01     
3.500000e-01     3.500000e-01     3.500000e-01     3.500000e-01     3.500000e-01     
3.500000e-01     3.500000e-01     3.500000e-01     3.500000e-01     3.500000e-01     
3.500000e-01     3.000000e-01     3.000000e-01     3.000000e-01     3.000000e-01     
3.000000e-01     3.000000e-01     3.000000e-01     3.000000e-01     3.000000e-01     
3.000000e-01     3.000000e-01     2.500000e-01     2.500000e-01     2.500000e-01     
2.500000e-01     2.500000e-01     2.500000e-01     2.500000e-01     2.500000e-01     
2.500000e-01     2.500000e-01     2.500000e-01     5.000000e-01     4.500000e-01     
5.000000e-01     4.500000e-01     5.000000e-01     4.500000e-01     5.000000e-01     
4.500000e-01     5.000000e-01     4.500000e-01     5.000000e-01     4.500000e-01     
5.000000e-01     4.500000e-01     5.000000e-01     4.500000e-01     5.000000e-01     
4.500000e-01     5.000000e-01     4.500000e-01     4.500000e-01     5.000000e-01     
4.000000e-01     4.000000e-01     4.000000e-01     4.000000e-01     4.000000e-01     
4.000000e-01     4.000000e-01     4.000000e-01     4.000000e-01     4.000000e-01     
4.000000e-01     3.500000e-01     3.500000e-01     3.500000e-01     3.500000e-01     
3.500000e-01     3.500000e-01     3.500000e-01     3.500000e-01     3.500000e-01     
3.500000e-01     3.500000e-01     3.000000e-01     3.000000e-01     3.000000e-01     
3.000000e-01     3.000000e-01     3.000000e-01     3.000000e-01     3.000000e-01     
3.000000e-01     3.000000e-01     3.000000e-01     2.500000e-01     2.500000e-01     
2.500000e-01     2.500000e-01     2.500000e-01     2.500000e-01     2.500000e-01     
2.500000e-01     2.500000e-01     2.500000e-01     2.500000e-01     5.000000e-01     
4.500000e-01     5.000000e-01     4.500000e-01     5.000000e-01     4.500000e-01     
5.000000e-01     4.500000e-01     5.000000e-01     4.500000e-01     5.000000e-01     
4.500000e-01     5.000000e-01     4.500000e-01     5.000000e-01     4.500000e-01     
5.000000e-01     4.500000e-01     5.000000e-01     4.500000e-01     4.500000e-01     
4.000000e-01     4.000000e-01     4.000000e-01     4.000000e-01     4.000000e-01     
4.000000e-01     4.000000e-01     4.000000e-01     4.000000e-01     4.000000e-01     
4.000000e-01     3.500000e-01     3.500000e-01     3.500000e-01     3.500000e-01     
3.500000e-01     3.500000e-01     3.500000e-01     3.500000e-01     3.500000e-01     
3.500000e-01     3.500000e-01     3.000000e-01     3.000000e-01     3.000000e-01     
3.000000e-01     3.000000e-01     3.000000e-01     3.000000e-01     3.000000e-01     
3.000000e-01     3.000000e-01     3.000000e-01     2.500000e-01     2.500000e-01     
2.500000e-01     2.500000e-01     2.500000e-01     2.500000e-01     2.500000e-01     
2.500000e-01     2.500000e-01     2.500000e-01     2.500000e-01     5.000000e-01     


0      
0      0      0      0      0      0      0      0      0      0      
0      0      0      0      0      0      0      0      0      0      
0      0      0      0      0      0      0      0      0      0      
0      0      0      0      0      0      0      0      0      0      
0      0      0      0      0      0      0      0      0      0      
0      0      0      0      0      0      0      0      0      0      
0      0      0      0      0      0      0      0      0      0      
0      0      0      0      0      0      0      0      0      0      
0      0      0      0      0      0      0      0      0      0      
0      0      0      0      0      0      0      0      0      0      
0      0      0      0      0      0      0      0      0      0      
0      0      0      0      0      0      0      0      0      0      
0      0      0      0      0      0      0      0      0      0      
0      0      0      0      0      0      0      0      0      0      
0      0      0      0      0      0      0      0      0      0      
0      0      0      0      0      0      0      0      0      0      
0      0      0      0      0      0      0      0      0      0      
0      0      0      0      0      0      0      0      0      0      
0      0      0      0      0      0      0      0      0      0      
0      0      0      0      0      0      0      0      0      0      
0      0      0      0      0      0      0      0      0      0      
0      0      0      0      0      0      0      0      0      0      
0      0      0      0      0      0      0      0      0      0      
0      0      0      0      0      0      0      0      0      0      
0      0      0      0      0      0      0      0      0      1      
1      1      1      1      1      1      1      1      1      1      
1      1      1      1      1      1      1      1      1      1      
1      1      1      1      1      1      1      1      1      1      
1      1      1      1      1      1      1      1      1      1      
1      1      1      1      1      1      1      1      1      1      
1      1      1      1      1      1      1      1      1      1      
1      1      1      1      1      1      1      1      1      1      
1      1      1      1      1      1      1      1      1      1      
1      1      1      1      1      1      1      1      1      1      
1      1      1      1      1      1      1      1      1      1      
1      1      1      1      1      1      1      1      1      1      
1      1      1      1      1      1      1      1      1      1      
1      1      1      1      1      1      1      1      1      1      
1      1      1      1      1      1      1      1      1      1      
1      1      1      1      1      1      1      1      1      1      
1      1      1      1      1      1      1      1      1      1      
1      1      1      1      1      1      1      1      1      1      
1      1      1      1      1      1      1      1      1      1      
1      1      1      1      1      1      1      1      1      1      
1      1      1      1      1      1      1      1      1      1      
1      1      1      1      1      1      1      1      1      1      
1      1      1      1      1      1      1      1      1      1      
1      1      1      1      1      1      1      1      1      1      
1      1      1      1      1      1      1      1      1      1      
1      1      1      1      1      1      1      1      1      

69      70      2      3      71      72      5      6      
3      2      70      69      4      1      68      67      
70      68      1      2      90      89      23      24      
68      70      69      67      134      136      135      133      
71      72      5      6      73      74      7      8      
72      70      2      5      91      90      24      25      
70      72      71      69      136      138      137      135      
73      74      7      8      75      76      9      10      
74      72      5      7      92      91      25      26      
72      74      73      71      138      140      139      137      
75      76      9      10      77      78      11      12      
76      74      7      9      93      92      26      27      
74      76      75      73      140      142      141      139      
77      78      11      12      79      80      13      14      
78      76      9      11      94      93      27      28      
76      78      77      75      142      144      143      141      
79      80      13      14      81      82      15      16      
80      78      11      13      95      94      28      29      
78      80      79      77      144      146      145      143      
81      82      15      16      83      84      17      18      
82      80      13      15      96      95      29      30      
80      82      81      79      146      148      147      145      
83      84      17      18      85      86      19      20      
84      82      15      17      97      96      30      31      
82      84      83      81      148      150      149      147      
85      86      19      20      88      87      21      22      
86      84      17      19      98      97      31      32      
84      86      85      83      150      152      151      149      
87      86      19      21      99      98      32      33      
86      87      88      85      152      153      154      151      
90      89      23      24      101      100      34      35      
89      90      70      68      155      156      136      134      
91      90      24      25      102      101      35      36      
90      91      72      70      156      157      138      136      
92      91      25      26      103      102      36      37      
91      92      74      72      157      158      140      138      
93      92      26      27      104      103      37      38      
92      93      76      74      158      159      142      140      
94      93      27      28      105      104      38      39      
93      94      78      76      159      160      144      142      
95      94      28      29      106      105      39      40      
94      95      80      78      160      161      146      144      
96      95      29      30      107      106      40      41      
95      96      82      80      161      162      148      146      
97      96      30      31      108      107      41      42      
96      97      84      82      162      163      150      148      
98      97      31      32      109      108      42      43      
97      98      86      84      163      164      152      150      
99      98      32      33      110      109      43      44      
98      99      87      86      164      165      153      152      
101      100      34      35      112      111      45      46      
100      101      90      89      166      167      156      155      
102      101      35      36      113      112      46      47      
101      102      91      90      167      168      157      156      
103      102      36      37      114      113      47      48      
102      103      92      91      168      169      158      157      
104      103      37      38      115      114      48      49      
103      104      93      92      169      170      159      158      
105      104      38      39      116      115      49      50      
104      105      94      93      170      171      160      159      
106      105      39      40      117      116      50      51      
105      106      95      94      171      172      161      160      
107      106      40      41      118      117      51      52      
106      107      96      95      172      173      162      161      
108      107      41      42      119      118      52      53      
107      108      97      96      173      174      163      162      
109      108      42      43      120      119      53      54      
108      109      98      97      174      175      164      163      
110      109      43      44      121      120      54      55      
109      110      99      98      175      176      165      164      
112      111      45      46      123      122      56      57      
111      112      101      100      177      178      167      166      
113      112      46      47      124      123      57      58      
112      113      102      101      178      179      168      167      
114      113      47      48      125      124      58      59      
113      114      103      102      179      180      169      168      
115      114      48      49      126      125      59      60      
114      115      104      103      180      181      170      169      
116      115      49      50      127      126      60      61      