title = " tecplot file for process Mesh " 
variables = "x",  "y", "z", "cell_type" 
zone N = 396 E = 500 DATAPACKING = BLOCK,  VARLOCATION = ([4]=CELLCENTERED), ZONETYPE=FEBRICK 
2.500000e-01     
2.500000e-01     2.500000e-01     2.500000e-01     2.500000e-01     2.500000e-01     
2.500000e-01     2.500000e-01     2.500000e-01     2.500000e-01     2.500000e-01     
2.500000e-01     2.500000e-01     2.500000e-01     2.500000e-01     2.500000e-01     
2.500000e-01     2.500000e-01     2.500000e-01     2.500000e-01     2.500000e-01     
2.500000e-01     2.500000e-01     2.500000e-01     2.500000e-01     2.500000e-01     
2.500000e-01     2.500000e-01     2.500000e-01     2.500000e-01     2.500000e-01     
2.500000e-01     2.500000e-01     2.500000e-01     2.500000e-01     2.500000e-01     
2.500000e-01     2.500000e-01     2.500000e-01     2.500000e-01     2.500000e-01     
2.500000e-01     2.500000e-01     2.500000e-01     2.500000e-01     2.500000e-01     
2.500000e-01     2.500000e-01     2.500000e-01     2.500000e-01     2.500000e-01     
2.500000e-01     2.500000e-01     2.500000e-01     2.500000e-01     2.500000e-01     
2.500000e-01     2.500000e-01     2.500000e-01     2.500000e-01     2.500000e-01     
2.500000e-01     2.500000e-01     2.500000e-01     2.500000e-01     2.500000e-01     
2.000000e-01     2.000000e-01     2.000000e-01     2.000000e-01     2.000000e-01     
2.000000e-01     2.000000e-01     2.000000e-01     2.000000e-01     2.000000e-01     
2.000000e-01     2.000000e-01     2.000000e-01     2.000000e-01     2.000000e-01     
2.000000e-01     2.000000e-01     2.000000e-01     2.000000e-01     2.000000e-01     
2.000000e-01     2.000000e-01     2.000000e-01     2.000000e-01     2.000000e-01     
2.000000e-01     2.000000e-01     2.000000e-01     2.000000e-01     2.000000e-01     
2.000000e-01     2.000000e-01     2.000000e-01     2.000000e-01     2.000000e-01     
2.000000e-01     2.000000e-01     2.000000e-01     2.000000e-01     2.000000e-01     
2.000000e-01     2.000000e-01     2.000000e-01     2.000000e-01     2.000000e-01     
2.000000e-01     2.000000e-01     2.000000e-01     2.000000e-01     2.000000e-01     
2.000000e-01     2.000000e-01     2.000000e-01     2.000000e-01     2.000000e-01     
2.000000e-01     2.000000e-01     2.000000e-01     2.000000e-01     2.000000e-01     
2.000000e-01     2.000000e-01     2.000000e-01     2.000000e-01     2.000000e-01     
2.000000e-01     1.500000e-01     1.500000e-01     1.500000e-01     1.500000e-01     
1.500000e-01     1.500000e-01     1.500000e-01     1.500000e-01     1.500000e-01     
1.500000e-01     1.500000e-01     1.500000e-01     1.500000e-01     1.500000e-01     
1.500000e-01     1.500000e-01     1.500000e-01     1.500000e-01     1.500000e-01     
1.500000e-01     1.500000e-01     1.500000e-01     1.500000e-01     1.500000e-01     
1.500000e-01     1.500000e-01     1.500000e-01     1.500000e-01     1.500000e-01     
1.500000e-01     1.500000e-01     1.500000e-01     1.500000e-01     1.500000e-01     
1.500000e-01     1.500000e-01     1.500000e-01     1.500000e-01     1.500000e-01     
1.500000e-01     1.500000e-01     1.500000e-01     1.500000e-01     1.500000e-01     
1.500000e-01     1.500000e-01     1.500000e-01     1.500000e-01     1.500000e-01     
1.500000e-01     1.500000e-01     1.500000e-01     1.500000e-01     1.500000e-01     
1.500000e-01     1.500000e-01     1.500000e-01     1.500000e-01     1.500000e-01     
1.500000e-01     1.500000e-01     1.500000e-01     1.500000e-01     1.500000e-01     
1.500000e-01     1.500000e-01     1.000000e-01     1.000000e-01     1.000000e-01     
1.000000e-01     1.000000e-01     1.000000e-01     1.000000e-01     1.000000e-01     
1.000000e-01     1.000000e-01     1.000000e-01     1.000000e-01     1.000000e-01     
1.000000e-01     1.000000e-01     1.000000e-01     1.000000e-01     1.000000e-01     
1.000000e-01     1.000000e-01     1.000000e-01     1.000000e-01     1.000000e-01     
1.000000e-01     1.000000e-01     1.000000e-01     1.000000e-01     1.000000e-01     
1.000000e-01     1.000000e-01     1.000000e-01     1.000000e-01     1.000000e-01     
1.000000e-01     1.000000e-01     1.000000e-01     1.000000e-01     1.000000e-01     
1.000000e-01     1.000000e-01     1.000000e-01     1.000000e-01     1.000000e-01     
1.000000e-01     1.000000e-01     1.000000e-01     1.000000e-01     1.000000e-01     
1.000000e-01     1.000000e-01     1.000000e-01     1.000000e-01     1.000000e-01     
1.000000e-01     1.000000e-01     1.000000e-01     1.000000e-01     1.000000e-01     
1.000000e-01     1.000000e-01     1.000000e-01     1.000000e-01     1.000000e-01     
1.000000e-01     1.000000e-01     1.000000e-01     5.000000e-02     5.000000e-02     
5.000000e-02     5.000000e-02     5.000000e-02     5.000000e-02     5.000000e-02     
5.000000e-02     5.000000e-02     5.000000e-02     5.000000e-02     5.000000e-02     
5.000000e-02     5.000000e-02     5.000000e-02     5.000000e-02     5.000000e-02     
5.000000e-02     5.000000e-02     5.000000e-02     5.000000e-02     5.000000e-02     
5.000000e-02     5.000000e-02     5.000000e-02     5.000000e-02     5.000000e-02     
5.000000e-02     5.000000e-02     5.000000e-02     5.000000e-02     5.000000e-02     
5.000000e-02     5.000000e-02     5.000000e-02     5.000000e-02     5.000000e-02     
5.000000e-02     5.000000e-02     5.000000e-02     5.000000e-02     5.000000e-02     
5.000000e-02     5.000000e-02     5.000000e-02     5.000000e-02     5.000000e-02     
5.000000e-02     5.000000e-02     5.000000e-02     5.000000e-02     5.000000e-02     
5.000000e-02     5.000000e-02     5.000000e-02     5.000000e-02     5.000000e-02     
5.000000e-02     5.000000e-02     5.000000e-02     5.000000e-02     5.000000e-02     
5.000000e-02     5.000000e-02     5.000000e-02     5.000000e-02     0.000000e+00     
0.000000e+00     0.000000e+00     -2.775558e-17     0.000000e+00     0.000000e+00     
0.000000e+00     0.000000e+00     0.000000e+00     -2.775558e-17     0.000000e+00     
0.000000e+00     0.000000e+00     0.000000e+00     0.000000e+00     -2.775558e-17     
0.000000e+00     0.000000e+00     0.000000e+00     0.000000e+00     0.000000e+00     
-2.775558e-17     0.000000e+00     0.000000e+00     0.000000e+00     0.000000e+00     
0.000000e+00     0.000000e+00     0.000000e+00     2.775558e-17     0.000000e+00     
0.000000e+00     0.000000e+00     -2.775558e-17     0.000000e+00     0.000000e+00     
0.000000e+00     0.000000e+00     0.000000e+00     -2.775558e-17     0.000000e+00     
0.000000e+00     0.000000e+00     0.000000e+00     0.000000e+00     -2.775558e-17     
0.000000e+00     0.000000e+00     0.000000e+00     0.000000e+00     0.000000e+00     
-2.775558e-17     0.000000e+00     0.000000e+00     0.000000e+00     0.000000e+00     
0.000000e+00     -2.775558e-17     0.000000e+00     0.000000e+00     0.000000e+00     
0.000000e+00     0.000000e+00     -1.387779e-17     0.000000e+00     6.938894e-18     

0.000000e+00     
5.000000e-02     5.000000e-02     0.000000e+00     1.000000e-01     1.000000e-01     
1.500000e-01     1.500000e-01     2.000000e-01     2.000000e-01     2.500000e-01     
2.500000e-01     0.000000e+00     5.000000e-02     1.000000e-01     1.500000e-01     
2.000000e-01     2.500000e-01     0.000000e+00     5.000000e-02     1.000000e-01     
1.500000e-01     2.000000e-01     2.500000e-01     -1.387779e-17     5.000000e-02     
1.000000e-01     1.500000e-01     2.000000e-01     2.500000e-01     0.000000e+00     
5.000000e-02     1.000000e-01     1.500000e-01     2.000000e-01     2.500000e-01     
0.000000e+00     5.000000e-02     1.000000e-01     1.500000e-01     2.000000e-01     
2.500000e-01     0.000000e+00     5.000000e-02     1.000000e-01     1.500000e-01     
2.000000e-01     2.500000e-01     0.000000e+00     5.000000e-02     1.000000e-01     
1.500000e-01     2.000000e-01     2.500000e-01     0.000000e+00     5.000000e-02     
1.000000e-01     1.500000e-01     2.000000e-01     2.500000e-01     6.938894e-18     
5.000000e-02     1.000000e-01     1.500000e-01     2.000000e-01     2.500000e-01     
5.000000e-02     0.000000e+00     1.000000e-01     1.500000e-01     2.000000e-01     
2.500000e-01     0.000000e+00     5.000000e-02     1.000000e-01     1.500000e-01     
2.000000e-01     2.500000e-01     0.000000e+00     5.000000e-02     1.000000e-01     
1.500000e-01     2.000000e-01     2.500000e-01     0.000000e+00     5.000000e-02     
1.000000e-01     1.500000e-01     2.000000e-01     2.500000e-01     -1.110223e-17     
5.000000e-02     1.000000e-01     1.500000e-01     2.000000e-01     2.500000e-01     
0.000000e+00     5.000000e-02     1.000000e-01     1.500000e-01     2.000000e-01     
2.500000e-01     0.000000e+00     5.000000e-02     1.000000e-01     1.500000e-01     
2.000000e-01     2.500000e-01     0.000000e+00     5.000000e-02     1.000000e-01     
1.500000e-01     2.000000e-01     2.500000e-01     0.000000e+00     5.000000e-02     
1.000000e-01     1.500000e-01     2.000000e-01     2.500000e-01     0.000000e+00     
5.000000e-02     1.000000e-01     1.500000e-01     2.000000e-01     2.500000e-01     
-1.387779e-17     5.000000e-02     1.000000e-01     1.500000e-01     2.000000e-01     
2.500000e-01     5.000000e-02     0.000000e+00     1.000000e-01     1.500000e-01     
2.000000e-01     2.500000e-01     0.000000e+00     5.000000e-02     1.000000e-01     
1.500000e-01     2.000000e-01     2.500000e-01     0.000000e+00     5.000000e-02     
1.000000e-01     1.500000e-01     2.000000e-01     2.500000e-01     0.000000e+00     
5.000000e-02     1.000000e-01     1.500000e-01     2.000000e-01     2.500000e-01     
-8.326673e-18     5.000000e-02     1.000000e-01     1.500000e-01     2.000000e-01     
2.500000e-01     0.000000e+00     5.000000e-02     1.000000e-01     1.500000e-01     
2.000000e-01     2.500000e-01     0.000000e+00     5.000000e-02     1.000000e-01     
1.500000e-01     2.000000e-01     2.500000e-01     0.000000e+00     5.000000e-02     
1.000000e-01     1.500000e-01     2.000000e-01     2.500000e-01     0.000000e+00     
5.000000e-02     1.000000e-01     1.500000e-01     2.000000e-01     2.500000e-01     
0.000000e+00     5.000000e-02     1.000000e-01     1.500000e-01     2.000000e-01     
2.500000e-01     -1.387779e-17     5.000000e-02     1.000000e-01     1.500000e-01     
2.000000e-01     2.500000e-01     5.000000e-02     0.000000e+00     1.000000e-01     
1.500000e-01     2.000000e-01     2.500000e-01     0.000000e+00     5.000000e-02     
1.000000e-01     1.500000e-01     2.000000e-01     2.500000e-01     0.000000e+00     
5.000000e-02     1.000000e-01     1.500000e-01     2.000000e-01     2.500000e-01     
0.000000e+00     5.000000e-02     1.000000e-01     1.500000e-01     2.000000e-01     
2.500000e-01     -5.551115e-18     5.000000e-02     1.000000e-01     1.500000e-01     
2.000000e-01     2.500000e-01     0.000000e+00     5.000000e-02     1.000000e-01     
1.500000e-01     2.000000e-01     2.500000e-01     0.000000e+00     5.000000e-02     
1.000000e-01     1.500000e-01     2.000000e-01     2.500000e-01     0.000000e+00     
5.000000e-02     1.000000e-01     1.500000e-01     2.000000e-01     2.500000e-01     
0.000000e+00     5.000000e-02     1.000000e-01     1.500000e-01     2.000000e-01     
2.500000e-01     0.000000e+00     5.000000e-02     1.000000e-01     1.500000e-01     
2.000000e-01     2.500000e-01     0.000000e+00     5.000000e-02     1.000000e-01     
1.500000e-01     2.000000e-01     2.500000e-01     5.000000e-02     0.000000e+00     
1.000000e-01     1.500000e-01     2.000000e-01     2.500000e-01     0.000000e+00     
5.000000e-02     1.000000e-01     1.500000e-01     2.000000e-01     2.500000e-01     
0.000000e+00     5.000000e-02     1.000000e-01     1.500000e-01     2.000000e-01     
2.500000e-01     0.000000e+00     5.000000e-02     1.000000e-01     1.500000e-01     
2.000000e-01     2.500000e-01     -2.775558e-18     5.000000e-02     1.000000e-01     
1.500000e-01     2.000000e-01     2.500000e-01     0.000000e+00     5.000000e-02     
1.000000e-01     1.500000e-01     2.000000e-01     2.500000e-01     0.000000e+00     
5.000000e-02     1.000000e-01     1.500000e-01     2.000000e-01     2.500000e-01     
0.000000e+00     5.000000e-02     1.000000e-01     1.500000e-01     2.000000e-01     
2.500000e-01     0.000000e+00     5.000000e-02     1.000000e-01     1.500000e-01     
2.000000e-01     2.500000e-01     0.000000e+00     5.000000e-02     1.000000e-01     
1.500000e-01     2.000000e-01     2.500000e-01     0.000000e+00     5.000000e-02     
1.000000e-01     1.500000e-01     2.000000e-01     2.500000e-01     5.000000e-02     
0.000000e+00     1.000000e-01     1.500000e-01     2.000000e-01     2.500000e-01     
0.000000e+00     5.000000e-02     1.000000e-01     1.500000e-01     2.000000e-01     
2.500000e-01     0.000000e+00     5.000000e-02     1.000000e-01     1.500000e-01     
2.000000e-01     2.500000e-01     0.000000e+00     5.000000e-02     1.000000e-01     
1.500000e-01     2.000000e-01     2.500000e-01     1.232595e-32     5.000000e-02     
1.000000e-01     1.500000e-01     2.000000e-01     2.500000e-01     0.000000e+00     
5.000000e-02     1.000000e-01     1.500000e-01     2.000000e-01     2.500000e-01     
0.000000e+00     5.000000e-02     1.000000e-01     1.500000e-01     2.000000e-01     
2.500000e-01     0.000000e+00     5.000000e-02     1.000000e-01     1.500000e-01     
2.000000e-01     2.500000e-01     0.000000e+00     5.000000e-02     1.000000e-01     
1.500000e-01     2.000000e-01     2.500000e-01     0.000000e+00     5.000000e-02     
1.000000e-01     1.500000e-01     2.000000e-01     2.500000e-01     0.000000e+00     
5.000000e-02     1.000000e-01     1.500000e-01     2.000000e-01     2.500000e-01     

-5.000000e-02     
-5.000000e-02     0.000000e+00     0.000000e+00     -5.000000e-02     0.000000e+00     
-5.000000e-02     0.000000e+00     -5.000000e-02     0.000000e+00     -5.000000e-02     
0.000000e+00     -1.000000e-01     -1.000000e-01     -1.000000e-01     -1.000000e-01     
-1.000000e-01     -1.000000e-01     -1.500000e-01     -1.500000e-01     -1.500000e-01     
-1.500000e-01     -1.500000e-01     -1.500000e-01     -2.000000e-01     -2.000000e-01     
-2.000000e-01     -2.000000e-01     -2.000000e-01     -2.000000e-01     -2.500000e-01     
-2.500000e-01     -2.500000e-01     -2.500000e-01     -2.500000e-01     -2.500000e-01     
-3.000000e-01     -3.000000e-01     -3.000000e-01     -3.000000e-01     -3.000000e-01     
-3.000000e-01     -3.500000e-01     -3.500000e-01     -3.500000e-01     -3.500000e-01     
-3.500000e-01     -3.500000e-01     -4.000000e-01     -4.000000e-01     -4.000000e-01     
-4.000000e-01     -4.000000e-01     -4.000000e-01     -4.500000e-01     -4.500000e-01     
-4.500000e-01     -4.500000e-01     -4.500000e-01     -4.500000e-01     -5.000000e-01     
-5.000000e-01     -5.000000e-01     -5.000000e-01     -5.000000e-01     -5.000000e-01     
0.000000e+00     0.000000e+00     0.000000e+00     0.000000e+00     0.000000e+00     
0.000000e+00     -5.000000e-02     -5.000000e-02     -5.000000e-02     -5.000000e-02     
-5.000000e-02     -5.000000e-02     -1.000000e-01     -1.000000e-01     -1.000000e-01     
-1.000000e-01     -1.000000e-01     -1.000000e-01     -1.500000e-01     -1.500000e-01     
-1.500000e-01     -1.500000e-01     -1.500000e-01     -1.500000e-01     -2.000000e-01     
-2.000000e-01     -2.000000e-01     -2.000000e-01     -2.000000e-01     -2.000000e-01     
-2.500000e-01     -2.500000e-01     -2.500000e-01     -2.500000e-01     -2.500000e-01     
-2.500000e-01     -3.000000e-01     -3.000000e-01     -3.000000e-01     -3.000000e-01     
-3.000000e-01     -3.000000e-01     -3.500000e-01     -3.500000e-01     -3.500000e-01     
-3.500000e-01     -3.500000e-01     -3.500000e-01     -4.000000e-01     -4.000000e-01     
-4.000000e-01     -4.000000e-01     -4.000000e-01     -4.000000e-01     -4.500000e-01     
-4.500000e-01     -4.500000e-01     -4.500000e-01     -4.500000e-01     -4.500000e-01     
-5.000000e-01     -5.000000e-01     -5.000000e-01     -5.000000e-01     -5.000000e-01     
-5.000000e-01     0.000000e+00     0.000000e+00     0.000000e+00     0.000000e+00     
0.000000e+00     0.000000e+00     -5.000000e-02     -5.000000e-02     -5.000000e-02     
-5.000000e-02     -5.000000e-02     -5.000000e-02     -1.000000e-01     -1.000000e-01     
-1.000000e-01     -1.000000e-01     -1.000000e-01     -1.000000e-01     -1.500000e-01     
-1.500000e-01     -1.500000e-01     -1.500000e-01     -1.500000e-01     -1.500000e-01     
-2.000000e-01     -2.000000e-01     -2.000000e-01     -2.000000e-01     -2.000000e-01     
-2.000000e-01     -2.500000e-01     -2.500000e-01     -2.500000e-01     -2.500000e-01     
-2.500000e-01     -2.500000e-01     -3.000000e-01     -3.000000e-01     -3.000000e-01     
-3.000000e-01     -3.000000e-01     -3.000000e-01     -3.500000e-01     -3.500000e-01     
-3.500000e-01     -3.500000e-01     -3.500000e-01     -3.500000e-01     -4.000000e-01     
-4.000000e-01     -4.000000e-01     -4.000000e-01     -4.000000e-01     -4.000000e-01     
-4.500000e-01     -4.500000e-01     -4.500000e-01     -4.500000e-01     -4.500000e-01     
-4.500000e-01     -5.000000e-01     -5.000000e-01     -5.000000e-01     -5.000000e-01     
-5.000000e-01     -5.000000e-01     0.000000e+00     0.000000e+00     0.000000e+00     
0.000000e+00     0.000000e+00     0.000000e+00     -5.000000e-02     -5.000000e-02     
-5.000000e-02     -5.000000e-02     -5.000000e-02     -5.000000e-02     -1.000000e-01     
-1.000000e-01     -1.000000e-01     -1.000000e-01     -1.000000e-01     -1.000000e-01     
-1.500000e-01     -1.500000e-01     -1.500000e-01     -1.500000e-01     -1.500000e-01     
-1.500000e-01     -2.000000e-01     -2.000000e-01     -2.000000e-01     -2.000000e-01     
-2.000000e-01     -2.000000e-01     -2.500000e-01     -2.500000e-01     -2.500000e-01     
-2.500000e-01     -2.500000e-01     -2.500000e-01     -3.000000e-01     -3.000000e-01     
-3.000000e-01     -3.000000e-01     -3.000000e-01     -3.000000e-01     -3.500000e-01     
-3.500000e-01     -3.500000e-01     -3.500000e-01     -3.500000e-01     -3.500000e-01     
-4.000000e-01     -4.000000e-01     -4.000000e-01     -4.000000e-01     -4.000000e-01     
-4.000000e-01     -4.500000e-01     -4.500000e-01     -4.500000e-01     -4.500000e-01     
-4.500000e-01     -4.500000e-01     -5.000000e-01     -5.000000e-01     -5.000000e-01     
-5.000000e-01     -5.000000e-01     -5.000000e-01     0.000000e+00     0.000000e+00     
0.000000e+00     0.000000e+00     0.000000e+00     0.000000e+00     -5.000000e-02     
-5.000000e-02     -5.000000e-02     -5.000000e-02     -5.000000e-02     -5.000000e-02     
-1.000000e-01     -1.000000e-01     -1.000000e-01     -1.000000e-01     -1.000000e-01     
-1.000000e-01     -1.500000e-01     -1.500000e-01     -1.500000e-01     -1.500000e-01     
-1.500000e-01     -1.500000e-01     -2.000000e-01     -2.000000e-01     -2.000000e-01     
-2.000000e-01     -2.000000e-01     -2.000000e-01     -2.500000e-01     -2.500000e-01     
-2.500000e-01     -2.500000e-01     -2.500000e-01     -2.500000e-01     -3.000000e-01     
-3.000000e-01     -3.000000e-01     -3.000000e-01     -3.000000e-01     -3.000000e-01     
-3.500000e-01     -3.500000e-01     -3.500000e-01     -3.500000e-01     -3.500000e-01     
-3.500000e-01     -4.000000e-01     -4.000000e-01     -4.000000e-01     -4.000000e-01     
-4.000000e-01     -4.000000e-01     -4.500000e-01     -4.500000e-01     -4.500000e-01     
-4.500000e-01     -4.500000e-01     -4.500000e-01     -5.000000e-01     -5.000000e-01     
-5.000000e-01     -5.000000e-01     -5.000000e-01     -5.000000e-01     0.000000e+00     
0.000000e+00     0.000000e+00     0.000000e+00     0.000000e+00     0.000000e+00     
-5.000000e-02     -5.000000e-02     -5.000000e-02     -5.000000e-02     -5.000000e-02     
-5.000000e-02     -1.000000e-01     -1.000000e-01     -1.000000e-01     -1.000000e-01     
-1.000000e-01     -1.000000e-01     -1.500000e-01     -1.500000e-01     -1.500000e-01     
-1.500000e-01     -1.500000e-01     -1.500000e-01     -2.000000e-01     -2.000000e-01     
-2.000000e-01     -2.000000e-01     -2.000000e-01     -2.000000e-01     -2.500000e-01     
-2.500000e-01     -2.500000e-01     -2.500000e-01     -2.500000e-01     -2.500000e-01     
-3.000000e-01     -3.000000e-01     -3.000000e-01     -3.000000e-01     -3.000000e-01     
-3.000000e-01     -3.500000e-01     -3.500000e-01     -3.500000e-01     -3.500000e-01     
-3.500000e-01     -3.500000e-01     -4.000000e-01     -4.000000e-01     -4.000000e-01     
-4.000000e-01     -4.000000e-01     -4.000000e-01     -4.500000e-01     -4.500000e-01     
-4.500000e-01     -4.500000e-01     -4.500000e-01     -4.500000e-01     -5.000000e-01     
-5.000000e-01     -5.000000e-01     -5.000000e-01     -5.000000e-01     -5.000000e-01     


0      
0      0      0      0      0      0      0      0      0      0      
0      0      0      0      0      0      0      0      0      0      
0      0      0      0      0      0      0      0      0      0      
0      0      0      0      0      0      0      0      0      0      
0      0      0      0      0      0      0      0      0      0      
0      0      0      0      0      0      0      0      0      0      
0      0      0      0      0      0      0      0      0      0      
0      0      0      0      0      0      0      0      0      0      
0      0      0      0      0      0      0      0      0      0      
0      0      0      0      0      0      0      0      0      0      
0      0      0      0      0      0      0      0      0      0      
0      0      0      0      0      0      0      0      0      0      
0      0      0      0      0      0      0      0      0      0      
0      0      0      0      0      0      0      0      0      0      
0      0      0      0      0      0      0      0      0      0      
0      0      0      0      0      0      0      0      0      0      
0      0      0      0      0      0      0      0      0      0      
0      0      0      0      0      0      0      0      0      0      
0      0      0      0      0      0      0      0      0      0      
0      0      0      0      0      0      0      0      0      0      
0      0      0      0      0      0      0      0      0      0      
0      0      0      0      0      0      0      0      0      0      
0      0      0      0      0      0      0      0      0      0      
0      0      0      0      0      0      0      0      0      0      
0      0      0      0      0      0      0      0      0      1      
1      1      1      1      1      1      1      1      1      1      
1      1      1      1      1      1      1      1      1      1      
1      1      1      1      1      1      1      1      1      1      
1      1      1      1      1      1      1      1      1      1      
1      1      1      1      1      1      1      1      1      1      
1      1      1      1      1      1      1      1      1      1      
1      1      1      1      1      1      1      1      1      1      
1      1      1      1      1      1      1      1      1      1      
1      1      1      1      1      1      1      1      1      1      
1      1      1      1      1      1      1      1      1      1      
1      1      1      1      1      1      1      1      1      1      
1      1      1      1      1      1      1      1      1      1      
1      1      1      1      1      1      1      1      1      1      
1      1      1      1      1      1      1      1      1      1      
1      1      1      1      1      1      1      1      1      1      
1      1      1      1      1      1      1      1      1      1      
1      1      1      1      1      1      1      1      1      1      
1      1      1      1      1      1      1      1      1      1      
1      1      1      1      1      1      1      1      1      1      
1      1      1      1      1      1      1      1      1      1      
1      1      1      1      1      1      1      1      1      1      
1      1      1      1      1      1      1      1      1      1      
1      1      1      1      1      1      1      1      1      1      
1      1      1      1      1      1      1      1      1      1      
1      1      1      1      1      1      1      1      1      

67      74      2      3      69      75      5      6      
3      2      74      67      4      1      73      68      
74      73      1      2      80      79      13      14      
73      74      67      68      139      140      133      134      
69      75      5      6      70      76      7      8      
75      74      2      5      81      80      14      15      
74      75      69      67      140      141      135      133      
70      76      7      8      71      77      9      10      
76      75      5      7      82      81      15      16      
75      76      70      69      141      142      136      135      
71      77      9      10      72      78      11      12      
77      76      7      9      83      82      16      17      
76      77      71      70      142      143      137      136      
78      77      9      11      84      83      17      18      
77      78      72      71      143      144      138      137      
80      79      13      14      86      85      19      20      
79      80      74      73      145      146      140      139      
81      80      14      15      87      86      20      21      
80      81      75      74      146      147      141      140      
82      81      15      16      88      87      21      22      
81      82      76      75      147      148      142      141      
83      82      16      17      89      88      22      23      
82      83      77      76      148      149      143      142      
84      83      17      18      90      89      23      24      
83      84      78      77      149      150      144      143      
86      85      19      20      92      91      25      26      
85      86      80      79      151      152      146      145      
87      86      20      21      93      92      26      27      
86      87      81      80      152      153      147      146      
88      87      21      22      94      93      27      28      
87      88      82      81      153      154      148      147      
89      88      22      23      95      94      28      29      
88      89      83      82      154      155      149      148      
90      89      23      24      96      95      29      30      
89      90      84      83      155      156      150      149      
92      91      25      26      98      97      31      32      
91      92      86      85      157      158      152      151      
93      92      26      27      99      98      32      33      
92      93      87      86      158      159      153      152      
94      93      27      28      100      99      33      34      
93      94      88      87      159      160      154      153      
95      94      28      29      101      100      34      35      
94      95      89      88      160      161      155      154      
96      95      29      30      102      101      35      36      
95      96      90      89      161      162      156      155      
98      97      31      32      104      103      37      38      
97      98      92      91      163      164      158      157      
99      98      32      33      105      104      38      39      
98      99      93      92      164      165      159      158      
100      99      33      34      106      105      39      40      
99      100      94      93      165      166      160      159      
101      100      34      35      107      106      40      41      
100      101      95      94      166      167      161      160      
102      101      35      36      108      107      41      42      
101      102      96      95      167      168      162      161      
104      103      37      38      110      109      43      44      
103      104      98      97      169      170      164      163      
105      104      38      39      111      110      44      45      
104      105      99      98      170      171      165      164      
106      105      39      40      112      111      45      46      
105      106      100      99      171      172      166      165      
107      106      40      41      113      112      46      47      
106      107      101      100      172      173      167      166      
108      107      41      42      114      113      47      48      
107      108      102      101      173      174      168      167      
110      109      43      44      116      115      49      50      
109      110      104      103      175      176      170      169      
111      110      44      45      117      116      50      51      
110      111      105      104      176      177      171      170      
112      111      45      46      118      117      51      52      
111      112      106      105      177      178      172      171      
113      112      46      47      119      118      52      53      
112      113      107      106      178      179      173      172      
114      113      47      48      120      119      53      54      
113      114      108      107      179      180      174      173      
116      115      49      50      122      121      55      56      
115      116      110      109      181      182      176      175      
117      116      50      51      123      122      56      57      
116      117      111      110      182      183      177      176      
118      117      51      52      124      123      57      58      