title = " tecplot file for process Mesh " 
variables = "x",  "y", "z", "cell_type" 
zone N = 467 E = 616 DATAPACKING = BLOCK,  VARLOCATION = ([4]=CELLCENTERED), ZONETYPE=FEBRICK 
2.500000e-01     
2.500000e-01     2.500000e-01     2.500000e-01     2.500000e-01     2.500000e-01     
2.500000e-01     2.500000e-01     2.500000e-01     2.500000e-01     2.500000e-01     
2.500000e-01     2.500000e-01     2.500000e-01     2.000000e-01     2.000000e-01     
2.000000e-01     2.000000e-01     2.000000e-01     2.000000e-01     2.000000e-01     
2.000000e-01     2.000000e-01     2.000000e-01     2.000000e-01     2.000000e-01     
2.000000e-01     2.000000e-01     2.000000e-01     2.000000e-01     2.000000e-01     
2.000000e-01     2.000000e-01     2.000000e-01     2.000000e-01     2.000000e-01     
2.000000e-01     2.000000e-01     2.000000e-01     2.000000e-01     2.000000e-01     
2.000000e-01     2.000000e-01     2.000000e-01     2.000000e-01     2.000000e-01     
2.000000e-01     2.000000e-01     2.000000e-01     2.000000e-01     1.500000e-01     
1.500000e-01     1.500000e-01     1.500000e-01     1.500000e-01     1.500000e-01     
1.500000e-01     1.500000e-01     1.500000e-01     1.500000e-01     1.500000e-01     
1.500000e-01     1.500000e-01     1.500000e-01     1.500000e-01     1.500000e-01     
1.500000e-01     1.500000e-01     1.500000e-01     1.500000e-01     1.500000e-01     
1.500000e-01     1.500000e-01     1.500000e-01     1.500000e-01     1.500000e-01     
1.500000e-01     1.500000e-01     1.500000e-01     1.500000e-01     1.500000e-01     
1.500000e-01     1.500000e-01     1.500000e-01     1.500000e-01     1.500000e-01     
1.500000e-01     1.500000e-01     1.000000e-01     1.000000e-01     1.000000e-01     
1.000000e-01     1.000000e-01     1.000000e-01     1.000000e-01     1.000000e-01     
1.000000e-01     1.000000e-01     1.000000e-01     1.000000e-01     1.000000e-01     
1.000000e-01     1.000000e-01     1.000000e-01     1.000000e-01     1.000000e-01     
1.000000e-01     1.000000e-01     1.000000e-01     1.000000e-01     1.000000e-01     
1.000000e-01     1.000000e-01     1.000000e-01     1.000000e-01     1.000000e-01     
1.000000e-01     1.000000e-01     1.000000e-01     1.000000e-01     1.000000e-01     
1.000000e-01     1.000000e-01     1.000000e-01     1.000000e-01     1.000000e-01     
1.000000e-01     1.000000e-01     1.000000e-01     1.000000e-01     1.000000e-01     
1.000000e-01     1.000000e-01     1.000000e-01     5.000000e-02     5.000000e-02     
5.000000e-02     5.000000e-02     5.000000e-02     5.000000e-02     5.000000e-02     
5.000000e-02     5.000000e-02     5.000000e-02     5.000000e-02     5.000000e-02     
5.000000e-02     5.000000e-02     5.000000e-02     5.000000e-02     5.000000e-02     
5.000000e-02     5.000000e-02     5.000000e-02     5.000000e-02     5.000000e-02     
5.000000e-02     5.000000e-02     5.000000e-02     5.000000e-02     5.000000e-02     
5.000000e-02     5.000000e-02     5.000000e-02     5.000000e-02     5.000000e-02     
5.000000e-02     5.000000e-02     5.000000e-02     5.000000e-02     5.000000e-02     
5.000000e-02     5.000000e-02     5.000000e-02     5.000000e-02     5.000000e-02     
5.000000e-02     5.000000e-02     5.000000e-02     5.000000e-02     5.000000e-02     
5.000000e-02     5.000000e-02     5.000000e-02     5.000000e-02     5.000000e-02     
5.000000e-02     5.000000e-02     5.000000e-02     5.000000e-02     5.000000e-02     
0.000000e+00     0.000000e+00     0.000000e+00     0.000000e+00     0.000000e+00     
0.000000e+00     0.000000e+00     0.000000e+00     0.000000e+00     0.000000e+00     
0.000000e+00     0.000000e+00     0.000000e+00     0.000000e+00     0.000000e+00     
0.000000e+00     0.000000e+00     0.000000e+00     0.000000e+00     0.000000e+00     
0.000000e+00     0.000000e+00     0.000000e+00     0.000000e+00     0.000000e+00     
0.000000e+00     0.000000e+00     2.775558e-17     2.775558e-17     0.000000e+00     
2.775558e-17     2.775558e-17     2.775558e-17     0.000000e+00     -2.775558e-17     
0.000000e+00     0.000000e+00     2.775558e-17     0.000000e+00     -2.775558e-17     
0.000000e+00     0.000000e+00     0.000000e+00     2.775558e-17     -2.775558e-17     
0.000000e+00     0.000000e+00     0.000000e+00     -2.775558e-17     0.000000e+00     
0.000000e+00     0.000000e+00     -2.775558e-17     0.000000e+00     0.000000e+00     
0.000000e+00     -2.081668e-17     -1.040834e-17     0.000000e+00     -5.000000e-02     
-5.000000e-02     -5.000000e-02     -5.000000e-02     -5.000000e-02     -5.000000e-02     
-5.000000e-02     -5.000000e-02     -5.000000e-02     -5.000000e-02     -5.000000e-02     
-5.000000e-02     -5.000000e-02     -5.000000e-02     -5.000000e-02     -5.000000e-02     
-5.000000e-02     -5.000000e-02     -5.000000e-02     -5.000000e-02     -5.000000e-02     
-5.000000e-02     -5.000000e-02     -5.000000e-02     -5.000000e-02     -5.000000e-02     
-5.000000e-02     -5.000000e-02     -5.000000e-02     -5.000000e-02     -5.000000e-02     
-5.000000e-02     -5.000000e-02     -5.000000e-02     -5.000000e-02     -5.000000e-02     
-5.000000e-02     -5.000000e-02     -5.000000e-02     -5.000000e-02     -5.000000e-02     
-5.000000e-02     -5.000000e-02     -5.000000e-02     -5.000000e-02     -5.000000e-02     
-5.000000e-02     -5.000000e-02     -5.000000e-02     -5.000000e-02     -5.000000e-02     
-5.000000e-02     -5.000000e-02     -5.000000e-02     -5.000000e-02     -5.000000e-02     
-5.000000e-02     -5.000000e-02     -5.000000e-02     -1.000000e-01     -1.000000e-01     
-1.000000e-01     -1.000000e-01     -1.000000e-01     -1.000000e-01     -1.000000e-01     
-1.000000e-01     -1.000000e-01     -1.000000e-01     -1.000000e-01     -1.000000e-01     
-1.000000e-01     -1.000000e-01     -1.000000e-01     -1.000000e-01     -1.000000e-01     
-1.000000e-01     -1.000000e-01     -1.000000e-01     -1.000000e-01     -1.000000e-01     
-1.000000e-01     -1.000000e-01     -1.000000e-01     -1.000000e-01     -1.000000e-01     
-1.000000e-01     -1.000000e-01     -1.000000e-01     -1.000000e-01     -1.000000e-01     
-1.000000e-01     -1.000000e-01     -1.000000e-01     -1.000000e-01     -1.000000e-01     
-1.000000e-01     -1.000000e-01     -1.000000e-01     -1.000000e-01     -1.000000e-01     
-1.000000e-01     -1.000000e-01     -1.000000e-01     -1.000000e-01     -1.000000e-01     
-1.000000e-01     -1.000000e-01     -1.000000e-01     -1.000000e-01     -1.000000e-01     
-1.000000e-01     -1.000000e-01     -1.000000e-01     -1.000000e-01     -1.000000e-01     
-1.000000e-01     -1.000000e-01     -1.500000e-01     -1.500000e-01     -1.500000e-01     
-1.500000e-01     -1.500000e-01     -1.500000e-01     -1.500000e-01     -1.500000e-01     
-1.500000e-01     -1.500000e-01     -1.500000e-01     -1.500000e-01     -1.500000e-01     
-1.500000e-01     -1.500000e-01     -1.500000e-01     -1.500000e-01     -1.500000e-01     
-1.500000e-01     -1.500000e-01     -1.500000e-01     -1.500000e-01     -1.500000e-01     
-1.500000e-01     -1.500000e-01     -1.500000e-01     -1.500000e-01     -1.500000e-01     
-1.500000e-01     -1.500000e-01     -1.500000e-01     -1.500000e-01     -1.500000e-01     
-1.500000e-01     -1.500000e-01     -1.500000e-01     -1.500000e-01     -1.500000e-01     
-1.500000e-01     -1.500000e-01     -1.500000e-01     -1.500000e-01     -1.500000e-01     
-1.500000e-01     -1.500000e-01     -1.500000e-01     -1.500000e-01     -1.500000e-01     
-1.500000e-01     -1.500000e-01     -1.500000e-01     -1.500000e-01     -2.000000e-01     
-2.000000e-01     -2.000000e-01     -2.000000e-01     -2.000000e-01     -2.000000e-01     
-2.000000e-01     -2.000000e-01     -2.000000e-01     -2.000000e-01     -2.000000e-01     
-2.000000e-01     -2.000000e-01     -2.000000e-01     -2.000000e-01     -2.000000e-01     
-2.000000e-01     -2.000000e-01     -2.000000e-01     -2.000000e-01     -2.000000e-01     
-2.000000e-01     -2.000000e-01     -2.000000e-01     -2.000000e-01     -2.000000e-01     
-2.000000e-01     -2.000000e-01     -2.000000e-01     -2.000000e-01     -2.000000e-01     
-2.000000e-01     -2.500000e-01     -2.500000e-01     -2.500000e-01     -2.500000e-01     
-2.500000e-01     -2.500000e-01     -2.500000e-01     -2.500000e-01     -2.500000e-01     
-2.500000e-01     -2.500000e-01     -2.500000e-01     -2.500000e-01     -2.500000e-01     
-2.500000e-01     
4.500000e-01     
5.000000e-01     5.000000e-01     4.500000e-01     3.500000e-01     4.000000e-01     
4.000000e-01     3.500000e-01     4.500000e-01     5.000000e-01     3.500000e-01     
4.000000e-01     4.500000e-01     5.000000e-01     4.500000e-01     5.000000e-01     
5.000000e-01     4.500000e-01     4.500000e-01     5.000000e-01     4.500000e-01     
5.000000e-01     4.500000e-01     5.000000e-01     4.000000e-01     4.500000e-01     
4.000000e-01     5.000000e-01     3.500000e-01     4.000000e-01     4.000000e-01     
3.500000e-01     3.500000e-01     4.000000e-01     4.500000e-01     4.500000e-01     
5.000000e-01     5.000000e-01     4.000000e-01     3.500000e-01     4.500000e-01     
5.000000e-01     3.500000e-01     4.000000e-01     4.500000e-01     5.000000e-01     
3.500000e-01     4.000000e-01     4.500000e-01     5.000000e-01     5.000000e-01     
4.500000e-01     4.500000e-01     5.000000e-01     4.500000e-01     5.000000e-01     
4.500000e-01     5.000000e-01     4.500000e-01     4.000000e-01     5.000000e-01     
4.000000e-01     4.500000e-01     5.000000e-01     4.000000e-01     3.500000e-01     
4.500000e-01     5.000000e-01     3.500000e-01     4.000000e-01     4.500000e-01     
5.000000e-01     3.500000e-01     4.000000e-01     4.500000e-01     5.000000e-01     
3.500000e-01     4.000000e-01     4.500000e-01     5.000000e-01     3.500000e-01     
4.000000e-01     4.500000e-01     5.000000e-01     3.500000e-01     4.000000e-01     
4.500000e-01     5.000000e-01     5.000000e-01     4.500000e-01     2.000000e-01     
2.500000e-01     2.500000e-01     2.000000e-01     4.500000e-01     5.000000e-01     
2.000000e-01     2.500000e-01     4.500000e-01     5.000000e-01     2.000000e-01     
2.500000e-01     4.500000e-01     5.000000e-01     4.500000e-01     4.000000e-01     
5.000000e-01     4.000000e-01     4.500000e-01     5.000000e-01     4.000000e-01     
3.500000e-01     4.500000e-01     5.000000e-01     3.500000e-01     4.000000e-01     
4.500000e-01     5.000000e-01     3.500000e-01     4.000000e-01     4.500000e-01     
5.000000e-01     3.500000e-01     4.000000e-01     4.500000e-01     5.000000e-01     
3.500000e-01     4.000000e-01     4.500000e-01     5.000000e-01     3.500000e-01     
4.000000e-01     4.500000e-01     5.000000e-01     2.500000e-01     2.000000e-01     
5.000000e-01     4.500000e-01     2.000000e-01     2.500000e-01     4.500000e-01     
5.000000e-01     2.000000e-01     2.500000e-01     4.500000e-01     4.000000e-01     
4.000000e-01     5.000000e-01     2.000000e-01     2.500000e-01     4.500000e-01     
4.000000e-01     5.000000e-01     3.000000e-01     3.500000e-01     3.500000e-01     
3.000000e-01     4.000000e-01     4.500000e-01     5.000000e-01     3.000000e-01     
3.500000e-01     4.000000e-01     4.500000e-01     5.000000e-01     3.000000e-01     
3.500000e-01     4.000000e-01     4.500000e-01     5.000000e-01     3.500000e-01     
3.000000e-01     4.000000e-01     4.500000e-01     5.000000e-01     3.500000e-01     
4.000000e-01     4.500000e-01     5.000000e-01     3.500000e-01     4.000000e-01     
4.500000e-01     5.000000e-01     3.500000e-01     4.000000e-01     4.500000e-01     
5.000000e-01     3.500000e-01     4.000000e-01     4.500000e-01     5.000000e-01     
2.500000e-01     2.000000e-01     4.500000e-01     4.000000e-01     5.000000e-01     
2.000000e-01     2.500000e-01     4.000000e-01     3.500000e-01     3.500000e-01     
4.500000e-01     5.000000e-01     2.000000e-01     2.500000e-01     3.000000e-01     
3.000000e-01     3.500000e-01     4.000000e-01     4.500000e-01     5.000000e-01     
2.000000e-01     2.500000e-01     3.000000e-01     3.500000e-01     4.000000e-01     
4.500000e-01     5.000000e-01     3.000000e-01     3.500000e-01     4.000000e-01     
4.500000e-01     5.000000e-01     3.000000e-01     3.500000e-01     4.000000e-01     
4.500000e-01     5.000000e-01     3.000000e-01     3.500000e-01     4.000000e-01     
4.500000e-01     5.000000e-01     3.500000e-01     3.000000e-01     4.000000e-01     
4.500000e-01     5.000000e-01     3.500000e-01     4.000000e-01     4.500000e-01     
5.000000e-01     3.500000e-01     4.000000e-01     4.500000e-01     5.000000e-01     
3.500000e-01     4.000000e-01     4.500000e-01     5.000000e-01     4.000000e-01     
3.500000e-01     4.500000e-01     5.000000e-01     2.500000e-01     2.000000e-01     
3.000000e-01     3.500000e-01     4.000000e-01     4.500000e-01     5.000000e-01     
2.000000e-01     2.500000e-01     3.000000e-01     3.500000e-01     4.000000e-01     
4.500000e-01     5.000000e-01     2.000000e-01     2.500000e-01     3.000000e-01     
3.500000e-01     4.000000e-01     4.500000e-01     5.000000e-01     2.000000e-01     
2.500000e-01     3.000000e-01     3.500000e-01     4.000000e-01     4.500000e-01     
5.000000e-01     3.000000e-01     3.500000e-01     4.000000e-01     4.500000e-01     
5.000000e-01     3.000000e-01     3.500000e-01     4.000000e-01     4.500000e-01     
5.000000e-01     3.000000e-01     3.500000e-01     4.000000e-01     4.500000e-01     
5.000000e-01     3.500000e-01     4.000000e-01     4.500000e-01     5.000000e-01     
3.500000e-01     4.000000e-01     4.500000e-01     5.000000e-01     3.500000e-01     
4.000000e-01     4.500000e-01     5.000000e-01     4.000000e-01     3.500000e-01     
4.500000e-01     5.000000e-01     2.500000e-01     2.000000e-01     3.000000e-01     
3.500000e-01     4.000000e-01     4.500000e-01     5.000000e-01     2.000000e-01     
2.500000e-01     3.000000e-01     3.500000e-01     4.000000e-01     4.500000e-01     
5.000000e-01     2.000000e-01     2.500000e-01     3.000000e-01     3.500000e-01     
4.000000e-01     4.500000e-01     5.000000e-01     2.000000e-01     2.500000e-01     
3.000000e-01     3.500000e-01     4.000000e-01     4.500000e-01     5.000000e-01     
3.000000e-01     3.500000e-01     4.000000e-01     4.500000e-01     5.000000e-01     
3.000000e-01     3.500000e-01     4.000000e-01     4.500000e-01     5.000000e-01     
3.000000e-01     3.500000e-01     4.000000e-01     4.500000e-01     5.000000e-01     
3.500000e-01     4.000000e-01     4.500000e-01     5.000000e-01     3.500000e-01     
4.000000e-01     4.500000e-01     5.000000e-01     3.500000e-01     4.000000e-01     
4.500000e-01     5.000000e-01     4.000000e-01     3.500000e-01     4.500000e-01     
5.000000e-01     2.500000e-01     2.000000e-01     3.000000e-01     3.500000e-01     
3.000000e-01     4.000000e-01     4.500000e-01     5.000000e-01     2.000000e-01     
2.500000e-01     3.000000e-01     3.500000e-01     4.000000e-01     4.500000e-01     
5.000000e-01     2.000000e-01     2.500000e-01     3.000000e-01     3.500000e-01     
4.000000e-01     4.500000e-01     5.000000e-01     2.000000e-01     2.500000e-01     
3.000000e-01     3.500000e-01     4.000000e-01     4.500000e-01     5.000000e-01     
3.500000e-01     4.000000e-01     4.500000e-01     5.000000e-01     4.000000e-01     
4.500000e-01     5.000000e-01     4.000000e-01     4.500000e-01     5.000000e-01     
4.000000e-01     4.500000e-01     5.000000e-01     4.000000e-01     4.500000e-01     
5.000000e-01     4.000000e-01     4.500000e-01     5.000000e-01     3.500000e-01     
3.000000e-01     4.000000e-01     4.500000e-01     5.000000e-01     2.500000e-01     
2.000000e-01     3.000000e-01     3.500000e-01     4.000000e-01     4.500000e-01     
5.000000e-01     2.000000e-01     2.500000e-01     3.000000e-01     3.500000e-01     
4.000000e-01     4.500000e-01     5.000000e-01     2.000000e-01     2.500000e-01     
3.000000e-01     3.500000e-01     4.500000e-01     5.000000e-01     2.000000e-01     
2.500000e-01     3.000000e-01     5.000000e-01     4.500000e-01     4.500000e-01     
5.000000e-01     2.500000e-01     2.000000e-01     3.000000e-01     3.500000e-01     
2.000000e-01     2.500000e-01     3.000000e-01     3.500000e-01     2.000000e-01     
2.500000e-01     3.000000e-01     3.500000e-01     2.000000e-01     2.500000e-01     
3.000000e-01     
-4.000000e-01     
-4.000000e-01     -3.500000e-01     -3.500000e-01     -4.500000e-01     -4.500000e-01     
-4.000000e-01     -4.000000e-01     -4.500000e-01     -4.500000e-01     -5.000000e-01     
-5.000000e-01     -5.000000e-01     -5.000000e-01     0.000000e+00     0.000000e+00     
5.000000e-02     5.000000e-02     -5.000000e-02     -5.000000e-02     -1.000000e-01     
-1.000000e-01     -1.500000e-01     -1.500000e-01     -2.000000e-01     -2.000000e-01     
-1.500000e-01     -2.000000e-01     -3.000000e-01     -3.000000e-01     -2.500000e-01     
-2.500000e-01     -3.500000e-01     -3.500000e-01     -3.500000e-01     -3.000000e-01     
-3.500000e-01     -3.000000e-01     -4.000000e-01     -4.000000e-01     -4.000000e-01     
-4.000000e-01     -4.500000e-01     -4.500000e-01     -4.500000e-01     -4.500000e-01     
-5.000000e-01     -5.000000e-01     -5.000000e-01     -5.000000e-01     5.000000e-02     
5.000000e-02     0.000000e+00     0.000000e+00     -5.000000e-02     -5.000000e-02     
-1.000000e-01     -1.000000e-01     -1.500000e-01     -1.500000e-01     -1.500000e-01     
-2.000000e-01     -2.000000e-01     -2.000000e-01     -2.500000e-01     -2.500000e-01     
-2.500000e-01     -2.500000e-01     -3.000000e-01     -3.000000e-01     -3.000000e-01     
-3.000000e-01     -3.500000e-01     -3.500000e-01     -3.500000e-01     -3.500000e-01     
-4.000000e-01     -4.000000e-01     -4.000000e-01     -4.000000e-01     -4.500000e-01     
-4.500000e-01     -4.500000e-01     -4.500000e-01     -5.000000e-01     -5.000000e-01     
-5.000000e-01     -5.000000e-01     5.000000e-02     5.000000e-02     0.000000e+00     
0.000000e+00     5.000000e-02     5.000000e-02     0.000000e+00     0.000000e+00     
-5.000000e-02     -5.000000e-02     -5.000000e-02     -5.000000e-02     -1.000000e-01     
-1.000000e-01     -1.000000e-01     -1.000000e-01     -1.500000e-01     -1.500000e-01     
-1.500000e-01     -2.000000e-01     -2.000000e-01     -2.000000e-01     -2.500000e-01     
-2.500000e-01     -2.500000e-01     -2.500000e-01     -3.000000e-01     -3.000000e-01     
-3.000000e-01     -3.000000e-01     -3.500000e-01     -3.500000e-01     -3.500000e-01     
-3.500000e-01     -4.000000e-01     -4.000000e-01     -4.000000e-01     -4.000000e-01     
-4.500000e-01     -4.500000e-01     -4.500000e-01     -4.500000e-01     -5.000000e-01     
-5.000000e-01     -5.000000e-01     -5.000000e-01     5.000000e-02     5.000000e-02     
5.000000e-02     5.000000e-02     0.000000e+00     0.000000e+00     0.000000e+00     
0.000000e+00     -5.000000e-02     -5.000000e-02     -5.000000e-02     -5.000000e-02     
0.000000e+00     -5.000000e-02     -1.000000e-01     -1.000000e-01     -1.000000e-01     
-1.000000e-01     -1.000000e-01     -1.500000e-01     -1.500000e-01     -1.000000e-01     
-1.000000e-01     -1.500000e-01     -1.500000e-01     -1.500000e-01     -2.000000e-01     
-2.000000e-01     -2.000000e-01     -2.000000e-01     -2.000000e-01     -2.500000e-01     
-2.500000e-01     -2.500000e-01     -2.500000e-01     -2.500000e-01     -3.000000e-01     
-3.000000e-01     -3.000000e-01     -3.000000e-01     -3.000000e-01     -3.500000e-01     
-3.500000e-01     -3.500000e-01     -3.500000e-01     -4.000000e-01     -4.000000e-01     
-4.000000e-01     -4.000000e-01     -4.500000e-01     -4.500000e-01     -4.500000e-01     
-4.500000e-01     -5.000000e-01     -5.000000e-01     -5.000000e-01     -5.000000e-01     
0.000000e+00     0.000000e+00     0.000000e+00     0.000000e+00     0.000000e+00     
-5.000000e-02     -5.000000e-02     -5.000000e-02     -5.000000e-02     0.000000e+00     
-5.000000e-02     -5.000000e-02     -1.000000e-01     -1.000000e-01     -1.000000e-01     
-5.000000e-02     -1.000000e-01     -1.000000e-01     -1.000000e-01     -1.000000e-01     
-1.500000e-01     -1.500000e-01     -1.500000e-01     -1.500000e-01     -1.500000e-01     
-1.500000e-01     -1.500000e-01     -2.000000e-01     -2.000000e-01     -2.000000e-01     
-2.000000e-01     -2.000000e-01     -2.500000e-01     -2.500000e-01     -2.500000e-01     
-2.500000e-01     -2.500000e-01     -3.000000e-01     -3.000000e-01     -3.000000e-01     
-3.000000e-01     -3.000000e-01     -3.500000e-01     -3.500000e-01     -3.500000e-01     
-3.500000e-01     -3.500000e-01     -4.000000e-01     -4.000000e-01     -4.000000e-01     
-4.000000e-01     -4.500000e-01     -4.500000e-01     -4.500000e-01     -4.500000e-01     
-5.000000e-01     -5.000000e-01     -5.000000e-01     -5.000000e-01     0.000000e+00     
0.000000e+00     0.000000e+00     0.000000e+00     -5.000000e-02     -5.000000e-02     
-5.000000e-02     -5.000000e-02     -5.000000e-02     -5.000000e-02     -5.000000e-02     
-1.000000e-01     -1.000000e-01     -1.000000e-01     -1.000000e-01     -1.000000e-01     
-1.000000e-01     -1.000000e-01     -1.500000e-01     -1.500000e-01     -1.500000e-01     
-1.500000e-01     -1.500000e-01     -1.500000e-01     -1.500000e-01     -2.000000e-01     
-2.000000e-01     -2.000000e-01     -2.000000e-01     -2.000000e-01     -2.000000e-01     
-2.000000e-01     -2.500000e-01     -2.500000e-01     -2.500000e-01     -2.500000e-01     
-2.500000e-01     -3.000000e-01     -3.000000e-01     -3.000000e-01     -3.000000e-01     
-3.000000e-01     -3.500000e-01     -3.500000e-01     -3.500000e-01     -3.500000e-01     
-3.500000e-01     -4.000000e-01     -4.000000e-01     -4.000000e-01     -4.000000e-01     
-4.500000e-01     -4.500000e-01     -4.500000e-01     -4.500000e-01     -5.000000e-01     
-5.000000e-01     -5.000000e-01     -5.000000e-01     0.000000e+00     0.000000e+00     
0.000000e+00     0.000000e+00     -5.000000e-02     -5.000000e-02     -5.000000e-02     
-5.000000e-02     -5.000000e-02     -5.000000e-02     -5.000000e-02     -1.000000e-01     
-1.000000e-01     -1.000000e-01     -1.000000e-01     -1.000000e-01     -1.000000e-01     
-1.000000e-01     -1.500000e-01     -1.500000e-01     -1.500000e-01     -1.500000e-01     
-1.500000e-01     -1.500000e-01     -1.500000e-01     -2.000000e-01     -2.000000e-01     
-2.000000e-01     -2.000000e-01     -2.000000e-01     -2.000000e-01     -2.000000e-01     
-2.500000e-01     -2.500000e-01     -2.500000e-01     -2.500000e-01     -2.500000e-01     
-3.000000e-01     -3.000000e-01     -3.000000e-01     -3.000000e-01     -3.000000e-01     
-3.500000e-01     -3.500000e-01     -3.500000e-01     -3.500000e-01     -3.500000e-01     
-4.000000e-01     -4.000000e-01     -4.000000e-01     -4.000000e-01     -4.500000e-01     
-4.500000e-01     -4.500000e-01     -4.500000e-01     -5.000000e-01     -5.000000e-01     
-5.000000e-01     -5.000000e-01     0.000000e+00     0.000000e+00     0.000000e+00     
0.000000e+00     -5.000000e-02     -5.000000e-02     -5.000000e-02     -5.000000e-02     
0.000000e+00     -5.000000e-02     -5.000000e-02     -5.000000e-02     -1.000000e-01     
-1.000000e-01     -1.000000e-01     -1.000000e-01     -1.000000e-01     -1.000000e-01     
-1.000000e-01     -1.500000e-01     -1.500000e-01     -1.500000e-01     -1.500000e-01     
-1.500000e-01     -1.500000e-01     -1.500000e-01     -2.000000e-01     -2.000000e-01     
-2.000000e-01     -2.000000e-01     -2.000000e-01     -2.000000e-01     -2.000000e-01     
-2.500000e-01     -2.500000e-01     -2.500000e-01     -2.500000e-01     -3.000000e-01     
-3.000000e-01     -3.000000e-01     -3.500000e-01     -3.500000e-01     -3.500000e-01     
-4.000000e-01     -4.000000e-01     -4.000000e-01     -4.500000e-01     -4.500000e-01     
-4.500000e-01     -5.000000e-01     -5.000000e-01     -5.000000e-01     0.000000e+00     
0.000000e+00     0.000000e+00     0.000000e+00     0.000000e+00     -5.000000e-02     
-5.000000e-02     -5.000000e-02     -5.000000e-02     -5.000000e-02     -5.000000e-02     
-5.000000e-02     -1.000000e-01     -1.000000e-01     -1.000000e-01     -1.000000e-01     
-1.000000e-01     -1.000000e-01     -1.000000e-01     -1.500000e-01     -1.500000e-01     
-1.500000e-01     -1.500000e-01     -1.500000e-01     -1.500000e-01     -2.000000e-01     
-2.000000e-01     -2.000000e-01     -4.500000e-01     -4.500000e-01     -5.000000e-01     
-5.000000e-01     -5.000000e-02     -5.000000e-02     -5.000000e-02     -5.000000e-02     
-1.000000e-01     -1.000000e-01     -1.000000e-01     -1.000000e-01     -1.500000e-01     
-1.500000e-01     -1.500000e-01     -1.500000e-01     -2.000000e-01     -2.000000e-01     
-2.000000e-01     

0      
0      0      0      0      0      0      0      0      0      0      
0      0      0      0      0      0      0      0      0      0      
0      0      0      0      0      0      0      0      0      0      
0      0      0      0      0      0      0      0      0      0      
0      0      0      0      0      0      0      0      0      0      
0      0      0      0      0      0      0      0      0      0      
0      0      0      0      0      0      0      0      0      0      
0      0      0      0      0      0      0      0      0      0      
0      0      0      0      0      0      0      0      0      0      
0      0      0      0      0      0      0      0      0      0      
0      0      0      0      0      0      0      0      0      0      
0      0      0      0      0      0      0      0      0      0      
0      0      0      0      0      0      0      0      0      0      
0      0      0      0      0      0      0      0      0      0      
0      0      0      0      0      0      0      0      0      0      
0      0      0      0      0      0      0      0      0      0      
0      0      0      0      0      0      0      0      0      0      
0      0      0      0      0      0      0      0      0      0      
0      0      0      0      0      0      0      0      0      0      
0      0      0      0      0      0      0      0      0      0      
0      0      0      0      0      0      0      0      0      0      
0      0      0      0      0      0      0      0      0      0      
0      0      0      0      0      0      0      0      0      0      
0      0      0      0      0      0      0      0      0      0      
0      0      0      0      0      0      0      0      0      1      
1      1      1      1      1      1      1      1      1      1      
1      1      1      1      1      1      1      1      1      1      
1      1      1      1      1      1      1      1      1      1      
1      1      1      1      1      1      1      1      1      1      
1      1      1      1      1      1      1      1      1      1      
1      1      1      1      1      1      1      1      1      1      
1      1      1      1      1      1      1      1      1      1      
1      1      1      1      1      1      1      1      1      1      
1      1      1      1      1      1      1      1      1      1      
1      1      1      1      1      1      1      1      1      1      
1      1      1      1      1      1      1      1      1      1      
1      1      1      1      1      1      1      1      1      1      
1      1      1      1      1      1      1      1      1      1      
1      1      1      1      1      1      1      1      1      1      
1      1      1      1      1      1      1      1      1      1      
1      1      1      1      1      1      1      1      1      1      
1      1      1      1      1      1      1      1      1      1      
1      1      1      1      1      1      1      1      1      1      
1      1      1      1      1      1      1      1      1      1      
1      1      1      1      1      1      1      1      1      1      
1      1      1      1      1      1      1      1      1      1      
1      1      1      1      1      1      1      1      1      1      
1      1      1      1      1      1      1      1      1      1      
1      1      1      1      1      1      1      1      1      1      
1      1      1      1      1      1      1      1      1      1      
1      1      1      1      1      1      1      1      1      1      
1      1      1      1      1      1      1      1      1      1      
1      1      1      1      1      1      1      1      1      1      
1      1      1      1      1      1      1      1      1      1      
1      1      1      1      1      1      1      1      1      1      
1      1      1      1      1      1      1      1      1      1      
1      1      1      1      1      1      1      1      1      1      
1      1      1      1      1      1      1      1      1      1      
1      1      1      1      1      1      1      1      1      1      
1      1      1      1      1      1      1      1      1      1      
1      1      1      1      1      1      1      1      1      1      
1      1      1      1      1      

42      41      1      2      46      45      9      10      
2      1      41      42      3      4      35      37      
41      42      37      35      79      80      76      75      
39      44      6      7      41      45      9      1      
7      6      44      39      8      5      43      40      
44      43      5      6      48      47      11      12      
43      44      39      40      81      82      78      77      
45      44      6      9      49      48      12      13      
44      45      41      39      82      83      79      78      
46      45      9      10      50      49      13      14      
45      46      42      41      83      84      80      79      