title = " tecplot file for process Mesh " 
variables = "x",  "y", "z", "cell_type" 
zone N = 436 E = 566 DATAPACKING = BLOCK,  VARLOCATION = ([4]=CELLCENTERED), ZONETYPE=FEBRICK 
-1.000000e-01     
-1.000000e-01     -1.000000e-01     -1.000000e-01     -1.000000e-01     -1.000000e-01     
-1.000000e-01     -1.000000e-01     -1.000000e-01     -1.000000e-01     -1.500000e-01     
-1.500000e-01     -1.500000e-01     -1.500000e-01     -1.500000e-01     -1.500000e-01     
-1.500000e-01     -1.500000e-01     -1.500000e-01     -1.500000e-01     -1.500000e-01     
-1.500000e-01     -1.500000e-01     -1.500000e-01     -1.500000e-01     -1.500000e-01     
-1.500000e-01     -1.500000e-01     -1.500000e-01     -1.500000e-01     -1.500000e-01     
-1.500000e-01     -1.500000e-01     -1.500000e-01     -1.500000e-01     -1.500000e-01     
-1.500000e-01     -1.500000e-01     -1.500000e-01     -1.500000e-01     -1.500000e-01     
-1.500000e-01     -1.500000e-01     -1.500000e-01     -1.500000e-01     -1.500000e-01     
-1.500000e-01     -1.500000e-01     -2.000000e-01     -2.000000e-01     -2.000000e-01     
-2.000000e-01     -2.000000e-01     -2.000000e-01     -2.000000e-01     -2.000000e-01     
-2.000000e-01     -2.000000e-01     -2.000000e-01     -2.000000e-01     -2.000000e-01     
-2.000000e-01     -2.000000e-01     -2.000000e-01     -2.000000e-01     -2.000000e-01     
-2.000000e-01     -2.000000e-01     -2.000000e-01     -2.000000e-01     -2.000000e-01     
-2.000000e-01     -2.000000e-01     -2.000000e-01     -2.000000e-01     -2.000000e-01     
-2.000000e-01     -2.000000e-01     -2.000000e-01     -2.000000e-01     -2.000000e-01     
-2.000000e-01     -2.000000e-01     -2.000000e-01     -2.000000e-01     -2.000000e-01     
-2.000000e-01     -2.000000e-01     -2.000000e-01     -2.000000e-01     -2.000000e-01     
-2.000000e-01     -2.500000e-01     -2.500000e-01     -2.500000e-01     -2.500000e-01     
-2.500000e-01     -2.500000e-01     -2.500000e-01     -2.500000e-01     -2.500000e-01     
-2.500000e-01     -2.500000e-01     -2.500000e-01     -2.500000e-01     -2.500000e-01     
-2.500000e-01     -2.500000e-01     -2.500000e-01     -2.500000e-01     -2.500000e-01     
-2.500000e-01     -2.500000e-01     -2.500000e-01     -2.500000e-01     -2.500000e-01     
-2.500000e-01     -2.500000e-01     -2.500000e-01     -2.500000e-01     -2.500000e-01     
-2.500000e-01     -2.500000e-01     -2.500000e-01     -2.500000e-01     -2.500000e-01     
-2.500000e-01     -2.500000e-01     -2.500000e-01     -2.500000e-01     -2.500000e-01     
-2.500000e-01     -2.500000e-01     -2.500000e-01     -2.500000e-01     -2.500000e-01     
-2.500000e-01     -2.500000e-01     -2.500000e-01     -2.500000e-01     -3.000000e-01     
-3.000000e-01     -3.000000e-01     -3.000000e-01     -3.000000e-01     -3.000000e-01     
-3.000000e-01     -3.000000e-01     -3.000000e-01     -3.000000e-01     -3.000000e-01     
-3.000000e-01     -3.000000e-01     -3.000000e-01     -3.000000e-01     -3.000000e-01     
-3.000000e-01     -3.000000e-01     -3.000000e-01     -3.000000e-01     -3.000000e-01     
-3.000000e-01     -3.000000e-01     -3.000000e-01     -3.000000e-01     -3.000000e-01     
-3.000000e-01     -3.000000e-01     -3.000000e-01     -3.000000e-01     -3.000000e-01     
-3.000000e-01     -3.000000e-01     -3.000000e-01     -3.000000e-01     -3.000000e-01     
-3.000000e-01     -3.000000e-01     -3.000000e-01     -3.000000e-01     -3.000000e-01     
-3.000000e-01     -3.000000e-01     -3.000000e-01     -3.000000e-01     -3.000000e-01     
-3.000000e-01     -3.500000e-01     -3.500000e-01     -3.500000e-01     -3.500000e-01     
-3.500000e-01     -3.500000e-01     -3.500000e-01     -3.500000e-01     -3.500000e-01     
-3.500000e-01     -3.500000e-01     -3.500000e-01     -3.500000e-01     -3.500000e-01     
-3.500000e-01     -3.500000e-01     -3.500000e-01     -3.500000e-01     -3.500000e-01     
-3.500000e-01     -3.500000e-01     -3.500000e-01     -3.500000e-01     -3.500000e-01     
-3.500000e-01     -3.500000e-01     -3.500000e-01     -3.500000e-01     -3.500000e-01     
-3.500000e-01     -3.500000e-01     -3.500000e-01     -3.500000e-01     -3.500000e-01     
-3.500000e-01     -3.500000e-01     -3.500000e-01     -3.500000e-01     -3.500000e-01     
-3.500000e-01     -3.500000e-01     -3.500000e-01     -3.500000e-01     -3.500000e-01     
-3.500000e-01     -3.500000e-01     -3.500000e-01     -3.500000e-01     -3.500000e-01     
-3.500000e-01     -3.500000e-01     -3.500000e-01     -3.500000e-01     -3.500000e-01     
-3.500000e-01     -3.500000e-01     -3.500000e-01     -3.500000e-01     -3.500000e-01     
-3.500000e-01     -3.500000e-01     -3.500000e-01     -3.500000e-01     -3.500000e-01     
-4.000000e-01     -4.000000e-01     -4.000000e-01     -4.000000e-01     -4.000000e-01     
-4.000000e-01     -4.000000e-01     -4.000000e-01     -4.000000e-01     -4.000000e-01     
-4.000000e-01     -4.000000e-01     -4.000000e-01     -4.000000e-01     -4.000000e-01     
-4.000000e-01     -4.000000e-01     -4.000000e-01     -4.000000e-01     -4.000000e-01     
-4.000000e-01     -4.000000e-01     -4.000000e-01     -4.000000e-01     -4.000000e-01     
-4.000000e-01     -4.000000e-01     -4.000000e-01     -4.000000e-01     -4.000000e-01     
-4.000000e-01     -4.000000e-01     -4.000000e-01     -4.000000e-01     -4.000000e-01     
-4.000000e-01     -4.000000e-01     -4.000000e-01     -4.000000e-01     -4.000000e-01     
-4.000000e-01     -4.000000e-01     -4.000000e-01     -4.000000e-01     -4.000000e-01     
-4.000000e-01     -4.000000e-01     -4.000000e-01     -4.000000e-01     -4.000000e-01     
-4.000000e-01     -4.000000e-01     -4.000000e-01     -4.000000e-01     -4.000000e-01     
-4.000000e-01     -4.000000e-01     -4.000000e-01     -4.000000e-01     -4.000000e-01     
-4.000000e-01     -4.000000e-01     -4.000000e-01     -4.500000e-01     -4.500000e-01     
-4.500000e-01     -4.500000e-01     -4.500000e-01     -4.500000e-01     -4.500000e-01     
-4.500000e-01     -4.500000e-01     -4.500000e-01     -4.500000e-01     -4.500000e-01     
-4.500000e-01     -4.500000e-01     -4.500000e-01     -4.500000e-01     -4.500000e-01     
-4.500000e-01     -4.500000e-01     -4.500000e-01     -4.500000e-01     -4.500000e-01     
-4.500000e-01     -4.500000e-01     -4.500000e-01     -4.500000e-01     -4.500000e-01     
-4.500000e-01     -4.500000e-01     -4.500000e-01     -4.500000e-01     -4.500000e-01     
-4.500000e-01     -4.500000e-01     -4.500000e-01     -4.500000e-01     -4.500000e-01     
-4.500000e-01     -4.500000e-01     -4.500000e-01     -4.500000e-01     -4.500000e-01     
-4.500000e-01     -4.500000e-01     -4.500000e-01     -4.500000e-01     -4.500000e-01     
-4.500000e-01     -4.500000e-01     -4.500000e-01     -4.500000e-01     -4.500000e-01     
-4.500000e-01     -4.500000e-01     -4.500000e-01     -4.500000e-01     -4.500000e-01     
-4.500000e-01     -4.500000e-01     -4.500000e-01     -4.500000e-01     -5.000000e-01     
-5.000000e-01     -5.000000e-01     -5.000000e-01     -5.000000e-01     -5.000000e-01     
-5.000000e-01     -5.000000e-01     -5.000000e-01     -5.000000e-01     -5.000000e-01     
-5.000000e-01     -5.000000e-01     -5.000000e-01     -5.000000e-01     -5.000000e-01     
-5.000000e-01     -5.000000e-01     -5.000000e-01     -5.000000e-01     -5.000000e-01     
-5.000000e-01     -5.000000e-01     -5.000000e-01     -5.000000e-01     -5.000000e-01     
-5.000000e-01     -5.000000e-01     -5.000000e-01     -5.000000e-01     -5.000000e-01     
-5.000000e-01     -5.000000e-01     -5.000000e-01     -5.000000e-01     -5.000000e-01     
-5.000000e-01     -5.000000e-01     -5.000000e-01     -5.000000e-01     -5.000000e-01     
-5.000000e-01     -5.000000e-01     -5.000000e-01     -5.000000e-01     -5.000000e-01     
-5.000000e-01     -5.000000e-01     -5.000000e-01     -5.000000e-01     -5.000000e-01     
-5.000000e-01     -5.000000e-01     -5.000000e-01     -5.000000e-01     -5.000000e-01     
-5.000000e-01     -5.000000e-01     -5.000000e-01     -5.000000e-01     -5.000000e-01     

-1.500000e-01     
-1.000000e-01     -1.000000e-01     -1.500000e-01     -5.000000e-01     -4.500000e-01     
-4.500000e-01     -5.000000e-01     -5.000000e-01     -4.500000e-01     -1.000000e-01     
-1.500000e-01     -1.500000e-01     -1.000000e-01     -1.500000e-01     -1.000000e-01     
-2.000000e-01     -1.500000e-01     -2.000000e-01     -1.000000e-01     -4.500000e-01     
-5.000000e-01     -4.000000e-01     -4.000000e-01     -4.500000e-01     -3.500000e-01     
-3.500000e-01     -3.000000e-01     -3.000000e-01     -2.500000e-01     -2.500000e-01     
-2.000000e-01     -1.500000e-01     -1.000000e-01     -4.500000e-01     -5.000000e-01     
-4.000000e-01     -3.500000e-01     -3.000000e-01     -2.500000e-01     -2.000000e-01     
-4.500000e-01     -5.000000e-01     -4.000000e-01     -3.500000e-01     -3.000000e-01     
-2.500000e-01     -2.000000e-01     -1.000000e-01     -1.500000e-01     -1.500000e-01     
-1.000000e-01     -1.500000e-01     -2.000000e-01     -1.000000e-01     -4.000000e-01     
-4.500000e-01     -3.500000e-01     -3.000000e-01     -2.500000e-01     -2.000000e-01     
-2.500000e-01     -1.500000e-01     -1.000000e-01     -4.500000e-01     -5.000000e-01     
-5.000000e-01     -4.000000e-01     -3.500000e-01     -3.000000e-01     -2.500000e-01     
-2.000000e-01     -1.500000e-01     -1.000000e-01     -4.500000e-01     -5.000000e-01     
-4.000000e-01     -3.500000e-01     -3.000000e-01     -2.500000e-01     -2.000000e-01     
-1.500000e-01     -1.000000e-01     -4.500000e-01     -5.000000e-01     -4.000000e-01     
-3.500000e-01     -3.000000e-01     -2.500000e-01     -2.000000e-01     -1.500000e-01     
-1.000000e-01     -1.000000e-01     -1.500000e-01     -1.500000e-01     -1.000000e-01     
-2.000000e-01     -2.500000e-01     -1.500000e-01     -1.000000e-01     -4.500000e-01     
-5.000000e-01     -4.000000e-01     -3.500000e-01     -3.000000e-01     -2.500000e-01     
-2.000000e-01     -1.500000e-01     -1.000000e-01     -4.500000e-01     -5.000000e-01     
-4.000000e-01     -3.500000e-01     -3.000000e-01     -2.500000e-01     -2.000000e-01     
-1.500000e-01     -1.000000e-01     -4.500000e-01     -5.000000e-01     -4.000000e-01     
-3.500000e-01     -3.000000e-01     -2.500000e-01     -2.000000e-01     -1.500000e-01     
-1.000000e-01     -4.500000e-01     -5.000000e-01     -4.000000e-01     -3.500000e-01     
-3.000000e-01     -2.500000e-01     -2.000000e-01     -1.500000e-01     -1.000000e-01     
-5.000000e-01     -4.500000e-01     -3.500000e-01     -3.000000e-01     -2.000000e-01     
-2.500000e-01     -1.500000e-01     -1.000000e-01     -4.500000e-01     -5.000000e-01     
-4.000000e-01     -3.500000e-01     -3.000000e-01     -2.500000e-01     -2.000000e-01     
-1.500000e-01     -1.000000e-01     -4.500000e-01     -5.000000e-01     -4.000000e-01     
-3.500000e-01     -3.000000e-01     -2.500000e-01     -2.000000e-01     -1.500000e-01     
-1.000000e-01     -4.500000e-01     -5.000000e-01     -4.000000e-01     -3.500000e-01     
-3.000000e-01     -2.500000e-01     -2.000000e-01     -1.500000e-01     -1.000000e-01     
-4.500000e-01     -5.000000e-01     -4.000000e-01     -3.500000e-01     -3.000000e-01     
-2.500000e-01     -2.000000e-01     -1.500000e-01     -1.000000e-01     -4.500000e-01     
-5.000000e-01     -4.000000e-01     -3.500000e-01     -3.000000e-01     -2.500000e-01     
-2.000000e-01     -2.000000e-01     -2.500000e-01     -1.500000e-01     -4.500000e-01     
-5.000000e-01     -4.500000e-01     -5.000000e-01     -4.000000e-01     -4.000000e-01     
-3.500000e-01     -3.500000e-01     -3.000000e-01     -2.500000e-01     -2.000000e-01     
-1.500000e-01     -1.000000e-01     -4.500000e-01     -5.000000e-01     -4.000000e-01     
-3.500000e-01     -3.000000e-01     -2.500000e-01     -2.000000e-01     -1.500000e-01     
-1.000000e-01     -4.500000e-01     -5.000000e-01     -4.000000e-01     -3.500000e-01     
-3.000000e-01     -2.500000e-01     -2.000000e-01     -1.500000e-01     -1.000000e-01     
-4.500000e-01     -5.000000e-01     -4.000000e-01     -3.500000e-01     -3.000000e-01     
-2.500000e-01     -2.000000e-01     -1.500000e-01     -1.000000e-01     -4.500000e-01     
-5.000000e-01     -4.000000e-01     -3.500000e-01     -3.000000e-01     -2.500000e-01     
-2.000000e-01     -5.000000e-01     -4.500000e-01     -4.000000e-01     -3.500000e-01     
-3.000000e-01     -2.500000e-01     -2.000000e-01     -5.000000e-01     -4.500000e-01     
-4.000000e-01     -3.500000e-01     -3.000000e-01     -2.500000e-01     -2.000000e-01     
-4.500000e-01     -5.000000e-01     -4.000000e-01     -3.500000e-01     -1.500000e-01     
-2.000000e-01     -4.500000e-01     -5.000000e-01     -4.000000e-01     -3.500000e-01     
-3.000000e-01     -2.500000e-01     -2.000000e-01     -1.500000e-01     -1.000000e-01     
-4.500000e-01     -5.000000e-01     -4.000000e-01     -3.500000e-01     -3.000000e-01     
-2.500000e-01     -2.000000e-01     -1.500000e-01     -1.000000e-01     -4.500000e-01     
-5.000000e-01     -4.000000e-01     -3.500000e-01     -3.000000e-01     -2.500000e-01     
-2.000000e-01     -1.500000e-01     -1.000000e-01     -4.500000e-01     -5.000000e-01     
-4.000000e-01     -3.500000e-01     -3.000000e-01     -2.500000e-01     -2.000000e-01     
-1.500000e-01     -1.000000e-01     -4.500000e-01     -5.000000e-01     -4.000000e-01     
-3.500000e-01     -3.000000e-01     -2.500000e-01     -2.000000e-01     -4.500000e-01     
-5.000000e-01     -4.000000e-01     -3.500000e-01     -3.000000e-01     -2.500000e-01     
-2.000000e-01     -4.500000e-01     -5.000000e-01     -4.000000e-01     -3.500000e-01     
-3.000000e-01     -2.500000e-01     -2.000000e-01     -4.500000e-01     -5.000000e-01     
-4.000000e-01     -3.500000e-01     -4.500000e-01     -5.000000e-01     -4.000000e-01     
-3.500000e-01     -3.000000e-01     -2.500000e-01     -2.000000e-01     -1.500000e-01     
-1.000000e-01     -4.500000e-01     -5.000000e-01     -4.000000e-01     -3.500000e-01     
-3.000000e-01     -2.500000e-01     -2.000000e-01     -1.500000e-01     -1.000000e-01     
-4.500000e-01     -5.000000e-01     -4.000000e-01     -3.500000e-01     -3.000000e-01     
-2.500000e-01     -2.000000e-01     -1.500000e-01     -1.000000e-01     -4.500000e-01     
-5.000000e-01     -4.000000e-01     -3.500000e-01     -3.000000e-01     -2.500000e-01     
-2.000000e-01     -1.500000e-01     -1.000000e-01     -4.500000e-01     -5.000000e-01     
-4.000000e-01     -3.500000e-01     -3.000000e-01     -2.500000e-01     -2.000000e-01     
-4.500000e-01     -5.000000e-01     -4.000000e-01     -3.500000e-01     -3.000000e-01     
-2.500000e-01     -2.000000e-01     -4.500000e-01     -5.000000e-01     -4.000000e-01     
-3.500000e-01     -3.000000e-01     -2.500000e-01     -2.000000e-01     -4.500000e-01     
-5.000000e-01     -4.000000e-01     -3.500000e-01     -4.500000e-01     -5.000000e-01     
-4.000000e-01     -3.500000e-01     -3.000000e-01     -2.000000e-01     -2.500000e-01     
-1.500000e-01     -1.000000e-01     -4.500000e-01     -5.000000e-01     -4.000000e-01     
-3.500000e-01     -3.000000e-01     -2.500000e-01     -2.000000e-01     -1.500000e-01     
-1.000000e-01     -4.500000e-01     -5.000000e-01     -4.000000e-01     -3.500000e-01     
-3.000000e-01     -2.500000e-01     -2.000000e-01     -1.500000e-01     -1.000000e-01     
-4.500000e-01     -5.000000e-01     -4.000000e-01     -3.500000e-01     -3.000000e-01     
-2.500000e-01     -2.000000e-01     -1.500000e-01     -1.000000e-01     -4.500000e-01     
-5.000000e-01     -4.000000e-01     -3.500000e-01     -3.000000e-01     -2.500000e-01     
-2.000000e-01     -4.500000e-01     -5.000000e-01     -4.000000e-01     -3.500000e-01     
-3.000000e-01     -2.500000e-01     -2.000000e-01     -4.500000e-01     -5.000000e-01     
-4.000000e-01     -3.500000e-01     -3.000000e-01     -2.500000e-01     -2.000000e-01     

1.000000e-01     
1.000000e-01     1.500000e-01     1.500000e-01     -1.000000e-01     -1.000000e-01     
-5.000000e-02     -5.000000e-02     -1.500000e-01     -1.500000e-01     1.500000e-01     
1.500000e-01     1.000000e-01     1.000000e-01     5.000000e-02     5.000000e-02     
0.000000e+00     0.000000e+00     5.000000e-02     0.000000e+00     -5.000000e-02     
-5.000000e-02     -5.000000e-02     0.000000e+00     0.000000e+00     -5.000000e-02     
0.000000e+00     -5.000000e-02     0.000000e+00     -5.000000e-02     0.000000e+00     
-5.000000e-02     -5.000000e-02     -5.000000e-02     -1.000000e-01     -1.000000e-01     
-1.000000e-01     -1.000000e-01     -1.000000e-01     -1.000000e-01     -1.000000e-01     
-1.500000e-01     -1.500000e-01     -1.500000e-01     -1.500000e-01     -1.500000e-01     
-1.500000e-01     -1.500000e-01     1.500000e-01     1.500000e-01     1.000000e-01     
1.000000e-01     5.000000e-02     5.000000e-02     5.000000e-02     0.000000e+00     
0.000000e+00     0.000000e+00     0.000000e+00     0.000000e+00     0.000000e+00     
5.000000e-02     0.000000e+00     0.000000e+00     -5.000000e-02     -5.000000e-02     
0.000000e+00     -5.000000e-02     -5.000000e-02     -5.000000e-02     -5.000000e-02     
-5.000000e-02     -5.000000e-02     -5.000000e-02     -1.000000e-01     -1.000000e-01     
-1.000000e-01     -1.000000e-01     -1.000000e-01     -1.000000e-01     -1.000000e-01     
-1.000000e-01     -1.000000e-01     -1.500000e-01     -1.500000e-01     -1.500000e-01     
-1.500000e-01     -1.500000e-01     -1.500000e-01     -1.500000e-01     -1.500000e-01     
-1.500000e-01     1.500000e-01     1.500000e-01     1.000000e-01     1.000000e-01     
5.000000e-02     5.000000e-02     5.000000e-02     5.000000e-02     0.000000e+00     
0.000000e+00     0.000000e+00     0.000000e+00     0.000000e+00     0.000000e+00     
0.000000e+00     0.000000e+00     0.000000e+00     -5.000000e-02     -5.000000e-02     
-5.000000e-02     -5.000000e-02     -5.000000e-02     -5.000000e-02     -5.000000e-02     
-5.000000e-02     -5.000000e-02     -1.000000e-01     -1.000000e-01     -1.000000e-01     
-1.000000e-01     -1.000000e-01     -1.000000e-01     -1.000000e-01     -1.000000e-01     
-1.000000e-01     -1.500000e-01     -1.500000e-01     -1.500000e-01     -1.500000e-01     
-1.500000e-01     -1.500000e-01     -1.500000e-01     -1.500000e-01     -1.500000e-01     
-2.000000e-01     -2.000000e-01     -2.000000e-01     -2.000000e-01     5.000000e-02     
5.000000e-02     5.000000e-02     5.000000e-02     0.000000e+00     0.000000e+00     
0.000000e+00     0.000000e+00     0.000000e+00     0.000000e+00     0.000000e+00     
0.000000e+00     0.000000e+00     -5.000000e-02     -5.000000e-02     -5.000000e-02     
-5.000000e-02     -5.000000e-02     -5.000000e-02     -5.000000e-02     -5.000000e-02     
-5.000000e-02     -1.000000e-01     -1.000000e-01     -1.000000e-01     -1.000000e-01     
-1.000000e-01     -1.000000e-01     -1.000000e-01     -1.000000e-01     -1.000000e-01     
-1.500000e-01     -1.500000e-01     -1.500000e-01     -1.500000e-01     -1.500000e-01     
-1.500000e-01     -1.500000e-01     -1.500000e-01     -1.500000e-01     -2.000000e-01     
-2.000000e-01     -2.000000e-01     -2.000000e-01     -2.000000e-01     -2.000000e-01     
-2.000000e-01     5.000000e-02     5.000000e-02     5.000000e-02     0.000000e+00     
0.000000e+00     5.000000e-02     5.000000e-02     0.000000e+00     5.000000e-02     
0.000000e+00     5.000000e-02     0.000000e+00     0.000000e+00     0.000000e+00     
0.000000e+00     0.000000e+00     -5.000000e-02     -5.000000e-02     -5.000000e-02     
-5.000000e-02     -5.000000e-02     -5.000000e-02     -5.000000e-02     -5.000000e-02     
-5.000000e-02     -1.000000e-01     -1.000000e-01     -1.000000e-01     -1.000000e-01     
-1.000000e-01     -1.000000e-01     -1.000000e-01     -1.000000e-01     -1.000000e-01     
-1.500000e-01     -1.500000e-01     -1.500000e-01     -1.500000e-01     -1.500000e-01     
-1.500000e-01     -1.500000e-01     -1.500000e-01     -1.500000e-01     -2.000000e-01     
-2.000000e-01     -2.000000e-01     -2.000000e-01     -2.000000e-01     -2.000000e-01     
-2.000000e-01     -2.500000e-01     -2.500000e-01     -2.500000e-01     -2.500000e-01     
-2.500000e-01     -2.500000e-01     -2.500000e-01     -3.000000e-01     -3.000000e-01     
-3.000000e-01     -3.000000e-01     -3.000000e-01     -3.000000e-01     -3.000000e-01     
5.000000e-02     5.000000e-02     5.000000e-02     5.000000e-02     5.000000e-02     
5.000000e-02     0.000000e+00     0.000000e+00     0.000000e+00     0.000000e+00     
0.000000e+00     0.000000e+00     0.000000e+00     0.000000e+00     0.000000e+00     
-5.000000e-02     -5.000000e-02     -5.000000e-02     -5.000000e-02     -5.000000e-02     
-5.000000e-02     -5.000000e-02     -5.000000e-02     -5.000000e-02     -1.000000e-01     
-1.000000e-01     -1.000000e-01     -1.000000e-01     -1.000000e-01     -1.000000e-01     
-1.000000e-01     -1.000000e-01     -1.000000e-01     -1.500000e-01     -1.500000e-01     
-1.500000e-01     -1.500000e-01     -1.500000e-01     -1.500000e-01     -1.500000e-01     
-1.500000e-01     -1.500000e-01     -2.000000e-01     -2.000000e-01     -2.000000e-01     
-2.000000e-01     -2.000000e-01     -2.000000e-01     -2.000000e-01     -2.500000e-01     
-2.500000e-01     -2.500000e-01     -2.500000e-01     -2.500000e-01     -2.500000e-01     
-2.500000e-01     -3.000000e-01     -3.000000e-01     -3.000000e-01     -3.000000e-01     
-3.000000e-01     -3.000000e-01     -3.000000e-01     5.000000e-02     5.000000e-02     
5.000000e-02     5.000000e-02     0.000000e+00     0.000000e+00     0.000000e+00     
0.000000e+00     0.000000e+00     0.000000e+00     0.000000e+00     0.000000e+00     
0.000000e+00     -5.000000e-02     -5.000000e-02     -5.000000e-02     -5.000000e-02     
-5.000000e-02     -5.000000e-02     -5.000000e-02     -5.000000e-02     -5.000000e-02     
-1.000000e-01     -1.000000e-01     -1.000000e-01     -1.000000e-01     -1.000000e-01     
-1.000000e-01     -1.000000e-01     -1.000000e-01     -1.000000e-01     -1.500000e-01     
-1.500000e-01     -1.500000e-01     -1.500000e-01     -1.500000e-01     -1.500000e-01     
-1.500000e-01     -1.500000e-01     -1.500000e-01     -2.000000e-01     -2.000000e-01     
-2.000000e-01     -2.000000e-01     -2.000000e-01     -2.000000e-01     -2.000000e-01     
-2.500000e-01     -2.500000e-01     -2.500000e-01     -2.500000e-01     -2.500000e-01     
-2.500000e-01     -2.500000e-01     -3.000000e-01     -3.000000e-01     -3.000000e-01     
-3.000000e-01     -3.000000e-01     -3.000000e-01     -3.000000e-01     5.000000e-02     
5.000000e-02     5.000000e-02     5.000000e-02     0.000000e+00     0.000000e+00     
0.000000e+00     0.000000e+00     0.000000e+00     0.000000e+00     0.000000e+00     
0.000000e+00     0.000000e+00     -5.000000e-02     -5.000000e-02     -5.000000e-02     
-5.000000e-02     -5.000000e-02     -5.000000e-02     -5.000000e-02     -5.000000e-02     
-5.000000e-02     -1.000000e-01     -1.000000e-01     -1.000000e-01     -1.000000e-01     
-1.000000e-01     -1.000000e-01     -1.000000e-01     -1.000000e-01     -1.000000e-01     
-1.500000e-01     -1.500000e-01     -1.500000e-01     -1.500000e-01     -1.500000e-01     
-1.500000e-01     -1.500000e-01     -1.500000e-01     -1.500000e-01     -2.000000e-01     
-2.000000e-01     -2.000000e-01     -2.000000e-01     -2.000000e-01     -2.000000e-01     
-2.000000e-01     -2.500000e-01     -2.500000e-01     -2.500000e-01     -2.500000e-01     
-2.500000e-01     -2.500000e-01     -2.500000e-01     -3.000000e-01     -3.000000e-01     
-3.000000e-01     -3.000000e-01     -3.000000e-01     -3.000000e-01     -3.000000e-01     


0      
0      0      0      0      0      0      0      0      0      0      
0      0      0      0      0      0      0      0      0      0      
0      0      0      0      0      0      0      0      0      0      
0      0      0      0      0      0      0      0      0      0      
0      0      0      0      0      0      0      0      0      0      
0      0      0      0      0      0      0      0      0      0      
0      0      0      0      0      0      0      0      0      0      
0      0      0      0      0      0      0      0      0      0      
0      0      0      0      0      0      0      0      0      0      
0      0      0      0      0      0      0      0      0      0      
0      0      0      0      0      0      0      0      0      0      
0      0      0      0      0      0      0      0      0      0      
0      0      0      0      0      0      0      0      0      0      
0      0      0      0      0      0      0      0      0      0      
0      0      0      0      0      0      0      0      0      0      
0      0      0      0      0      0      0      0      0      0      
0      0      0      0      0      0      0      0      0      0      
0      0      0      0      0      0      0      0      0      0      
0      0      0      0      0      0      0      0      0      0      
0      0      0      0      0      0      0      0      0      0      
0      0      0      0      0      0      0      0      0      0      
0      0      0      0      0      0      0      0      0      0      
0      0      0      0      0      0      0      0      0      0      
0      0      0      0      0      0      0      0      0      0      
0      0      0      0      0      0      0      0      0      1      
1      1      1      1      1      1      1      1      1      1      
1      1      1      1      1      1      1      1      1      1      
1      1      1      1      1      1      1      1      1      1      
1      1      1      1      1      1      1      1      1      1      
1      1      1      1      1      1      1      1      1      1      
1      1      1      1      1      1      1      1      1      1      
1      1      1      1      1      1      1      1      1      1      
1      1      1      1      1      1      1      1      1      1      
1      1      1      1      1      1      1      1      1      1      
1      1      1      1      1      1      1      1      1      1      
1      1      1      1      1      1      1      1      1      1      
1      1      1      1      1      1      1      1      1      1      
1      1      1      1      1      1      1      1      1      1      
1      1      1      1      1      1      1      1      1      1      
1      1      1      1      1      1      1      1      1      1      
1      1      1      1      1      1      1      1      1      1      
1      1      1      1      1      1      1      1      1      1      
1      1      1      1      1      1      1      1      1      1      
1      1      1      1      1      1      1      1      1      1      
1      1      1      1      1      1      1      1      1      1      
1      1      1      1      1      1      1      1      1      1      
1      1      1      1      1      1      1      1      1      1      
1      1      1      1      1      1      1      1      1      1      
1      1      1      1      1      1      1      1      1      1      
1      1      1      1      1      1      1      1      1      1      
1      1      1      1      1      1      1      1      1      1      
1      1      1      1      1      1      1      1      1      1      
1      1      1      1      1      1      1      1      1      1      
1      1      1      1      1      1      1      1      1      1      
1      1      1      1      1      1      1      1      1      1      
1      1      1      1      1      1      1      1      1      1      
1      1      1      1      1      

13      14      11      12      51      52      49      50      
12      11      14      13      4      3      2      1      
35      36      5      6      42      43      9      10      
6      5      36      35      7      8      22      21      
36      35      21      22      76      75      65      66      
43      42      35      36      85      84      75      76      
52      51      13      14      55      53      15      16      
51      52      49      50      95      96      93      94      
55      53      15      16      64      63      18      20      
53      55      52      51      99      100      96      95      
15      18      63      53      19      17      61      54      
63      61      17      18      73      72      32      33      
61      63      53      54      107      108      99      97      
64      63      18      20      74      73      33      34      
63      64      55      53      108      109      100      99      
56      68      23      24      58      69      26      27      
24      23      68      56      25      21      65      57      
68      65      21      23      77      75      35      37      
65      68      56      57      110      112      103      101      
58      69      26      27      59      70      28      29      
69      68      23      26      78      77      37      38      
68      69      58      56      112      113      104      103      
59      70      28      29      60      71      30      31      
70      69      26      28      79      78      38      39      
69      70      59      58      113      114      105      104      
60      71      30      31      61      72      32      17      
71      70      28      30      80      79      39      40      
70      71      60      59      114      115      106      105      
72      71      30      32      81      80      40      41      
71      72      61      60      115      116      107      106      
72      73      63      61      116      117      108      107      
73      74      64      63      117      118      109      108      