title = " tecplot file for process Mesh " 
variables = "x",  "y", "z", "cell_type" 
zone N = 402 E = 510 DATAPACKING = BLOCK,  VARLOCATION = ([4]=CELLCENTERED), ZONETYPE=FEBRICK 
4.500000e-01     
4.500000e-01     5.000000e-01     5.000000e-01     4.500000e-01     4.500000e-01     
5.000000e-01     5.000000e-01     4.500000e-01     4.500000e-01     5.000000e-01     
5.000000e-01     4.500000e-01     4.500000e-01     5.000000e-01     5.000000e-01     
4.500000e-01     4.500000e-01     5.000000e-01     5.000000e-01     4.500000e-01     
4.500000e-01     5.000000e-01     5.000000e-01     4.500000e-01     5.000000e-01     
4.500000e-01     5.000000e-01     4.500000e-01     5.000000e-01     4.500000e-01     
5.000000e-01     4.500000e-01     5.000000e-01     4.500000e-01     5.000000e-01     
4.500000e-01     5.000000e-01     4.500000e-01     5.000000e-01     4.500000e-01     
5.000000e-01     4.500000e-01     5.000000e-01     4.500000e-01     5.000000e-01     
4.500000e-01     5.000000e-01     4.500000e-01     5.000000e-01     4.500000e-01     
5.000000e-01     4.500000e-01     5.000000e-01     4.500000e-01     5.000000e-01     
4.500000e-01     5.000000e-01     4.500000e-01     5.000000e-01     4.500000e-01     
5.000000e-01     4.500000e-01     5.000000e-01     4.500000e-01     5.000000e-01     
4.500000e-01     5.000000e-01     4.500000e-01     5.000000e-01     4.500000e-01     
5.000000e-01     4.500000e-01     5.000000e-01     4.500000e-01     5.000000e-01     
4.500000e-01     5.000000e-01     4.500000e-01     5.000000e-01     4.500000e-01     
5.000000e-01     4.500000e-01     5.000000e-01     4.000000e-01     4.000000e-01     
4.000000e-01     4.000000e-01     4.000000e-01     4.000000e-01     4.000000e-01     
4.000000e-01     4.000000e-01     4.000000e-01     4.000000e-01     4.000000e-01     
4.000000e-01     4.000000e-01     4.000000e-01     4.000000e-01     4.000000e-01     
4.000000e-01     4.000000e-01     4.000000e-01     4.000000e-01     4.000000e-01     
4.000000e-01     4.000000e-01     4.000000e-01     4.000000e-01     4.000000e-01     
4.000000e-01     4.000000e-01     4.000000e-01     4.000000e-01     4.000000e-01     
4.000000e-01     4.000000e-01     4.000000e-01     4.000000e-01     4.000000e-01     
4.000000e-01     4.000000e-01     4.000000e-01     4.000000e-01     4.000000e-01     
3.500000e-01     3.500000e-01     3.500000e-01     3.500000e-01     3.500000e-01     
3.500000e-01     3.500000e-01     3.500000e-01     3.500000e-01     3.500000e-01     
3.500000e-01     3.500000e-01     3.500000e-01     3.500000e-01     3.500000e-01     
3.500000e-01     3.500000e-01     3.500000e-01     3.500000e-01     3.500000e-01     
3.500000e-01     3.500000e-01     3.500000e-01     3.500000e-01     3.500000e-01     
3.500000e-01     3.500000e-01     3.500000e-01     3.500000e-01     3.500000e-01     
3.500000e-01     3.500000e-01     3.500000e-01     3.500000e-01     3.500000e-01     
3.500000e-01     3.500000e-01     3.500000e-01     3.500000e-01     3.500000e-01     
3.500000e-01     3.500000e-01     3.000000e-01     3.000000e-01     3.000000e-01     
3.000000e-01     3.000000e-01     3.000000e-01     3.000000e-01     3.000000e-01     
3.000000e-01     3.000000e-01     3.000000e-01     3.000000e-01     3.000000e-01     
3.000000e-01     3.000000e-01     3.000000e-01     3.000000e-01     3.000000e-01     
3.000000e-01     3.000000e-01     3.000000e-01     3.000000e-01     3.000000e-01     
3.000000e-01     3.000000e-01     3.000000e-01     3.000000e-01     3.000000e-01     
3.000000e-01     3.000000e-01     3.000000e-01     3.000000e-01     3.000000e-01     
3.000000e-01     3.000000e-01     3.000000e-01     2.500000e-01     2.500000e-01     
2.500000e-01     2.500000e-01     2.500000e-01     2.500000e-01     2.500000e-01     
2.500000e-01     2.500000e-01     2.500000e-01     2.500000e-01     2.500000e-01     
2.500000e-01     2.500000e-01     2.500000e-01     2.500000e-01     2.500000e-01     
2.500000e-01     2.500000e-01     2.500000e-01     2.500000e-01     2.500000e-01     
2.500000e-01     2.500000e-01     2.500000e-01     2.500000e-01     2.500000e-01     
2.500000e-01     2.500000e-01     2.500000e-01     2.500000e-01     2.500000e-01     
2.500000e-01     2.500000e-01     2.500000e-01     2.500000e-01     2.000000e-01     
2.000000e-01     2.000000e-01     2.000000e-01     2.000000e-01     2.000000e-01     
2.000000e-01     2.000000e-01     2.000000e-01     2.000000e-01     2.000000e-01     
2.000000e-01     2.000000e-01     2.000000e-01     2.000000e-01     2.000000e-01     
2.000000e-01     2.000000e-01     2.000000e-01     2.000000e-01     2.000000e-01     
2.000000e-01     2.000000e-01     2.000000e-01     2.000000e-01     2.000000e-01     
2.000000e-01     2.000000e-01     2.000000e-01     2.000000e-01     2.000000e-01     
2.000000e-01     2.000000e-01     2.000000e-01     2.000000e-01     2.000000e-01     
1.500000e-01     1.500000e-01     1.500000e-01     1.500000e-01     1.500000e-01     
1.500000e-01     1.500000e-01     1.500000e-01     1.500000e-01     1.500000e-01     
1.500000e-01     1.500000e-01     1.500000e-01     1.500000e-01     1.500000e-01     
1.500000e-01     1.500000e-01     1.500000e-01     1.500000e-01     1.500000e-01     
1.500000e-01     1.500000e-01     1.500000e-01     1.500000e-01     1.500000e-01     
1.500000e-01     1.500000e-01     1.500000e-01     1.500000e-01     1.500000e-01     
1.500000e-01     1.500000e-01     1.500000e-01     1.500000e-01     1.500000e-01     
1.500000e-01     1.000000e-01     1.000000e-01     1.000000e-01     1.000000e-01     
1.000000e-01     1.000000e-01     1.000000e-01     1.000000e-01     1.000000e-01     
1.000000e-01     1.000000e-01     1.000000e-01     1.000000e-01     1.000000e-01     
1.000000e-01     1.000000e-01     1.000000e-01     1.000000e-01     1.000000e-01     
1.000000e-01     1.000000e-01     1.000000e-01     1.000000e-01     1.000000e-01     
1.000000e-01     1.000000e-01     1.000000e-01     1.000000e-01     1.000000e-01     
1.000000e-01     5.000000e-02     5.000000e-02     5.000000e-02     5.000000e-02     
5.000000e-02     5.000000e-02     5.000000e-02     5.000000e-02     5.000000e-02     
5.000000e-02     5.000000e-02     5.000000e-02     5.000000e-02     5.000000e-02     
5.000000e-02     5.000000e-02     5.000000e-02     5.000000e-02     5.000000e-02     
5.000000e-02     5.000000e-02     5.000000e-02     5.000000e-02     5.000000e-02     
5.000000e-02     5.000000e-02     5.000000e-02     5.000000e-02     5.000000e-02     
5.000000e-02     6.938894e-18     0.000000e+00     0.000000e+00     0.000000e+00     
-1.387779e-17     -2.775558e-17     0.000000e+00     0.000000e+00     0.000000e+00     
0.000000e+00     0.000000e+00     0.000000e+00     0.000000e+00     0.000000e+00     
-2.775558e-17     0.000000e+00     0.000000e+00     0.000000e+00     0.000000e+00     
0.000000e+00     0.000000e+00     0.000000e+00     0.000000e+00     0.000000e+00     
2.775558e-17     0.000000e+00     0.000000e+00     0.000000e+00     0.000000e+00     
0.000000e+00     
-2.500000e-01     
-2.500000e-01     -2.500000e-01     -2.500000e-01     -2.000000e-01     -2.000000e-01     
-2.000000e-01     -2.000000e-01     -1.500000e-01     -1.500000e-01     -1.500000e-01     
-1.500000e-01     -1.000000e-01     -1.000000e-01     -1.000000e-01     -1.000000e-01     
-5.000000e-02     -5.000000e-02     -5.000000e-02     -5.000000e-02     1.040834e-17     
-1.717376e-17     -1.908196e-17     0.000000e+00     -2.500000e-01     -2.500000e-01     
-2.000000e-01     -2.000000e-01     -1.500000e-01     -1.500000e-01     -1.000000e-01     
-1.000000e-01     -5.000000e-02     -5.000000e-02     -9.367507e-18     -1.040834e-17     
-2.500000e-01     -2.500000e-01     -2.000000e-01     -2.000000e-01     -1.500000e-01     
-1.500000e-01     -1.000000e-01     -1.000000e-01     -5.000000e-02     -5.000000e-02     
1.249001e-17     1.387779e-17     -2.500000e-01     -2.500000e-01     -2.000000e-01     
-2.000000e-01     -1.500000e-01     -1.500000e-01     -1.000000e-01     -1.000000e-01     
-5.000000e-02     -5.000000e-02     2.498002e-17     2.775558e-17     -2.500000e-01     
-2.500000e-01     -2.000000e-01     -2.000000e-01     -1.500000e-01     -1.500000e-01     
-1.000000e-01     -1.000000e-01     -5.000000e-02     -5.000000e-02     6.245005e-18     
6.938894e-18     -2.500000e-01     -2.500000e-01     -2.000000e-01     -2.000000e-01     
-1.500000e-01     -1.500000e-01     -1.000000e-01     -1.000000e-01     -5.000000e-02     
-5.000000e-02     1.249001e-17     1.387779e-17     -2.500000e-01     -2.500000e-01     
-2.000000e-01     -2.000000e-01     -1.500000e-01     -1.500000e-01     -1.000000e-01     
-1.000000e-01     -5.000000e-02     -5.000000e-02     6.938894e-18     -1.526557e-17     
-2.500000e-01     -2.000000e-01     -1.500000e-01     -1.000000e-01     -5.000000e-02     
-8.326673e-18     -2.500000e-01     -2.000000e-01     -1.500000e-01     -1.000000e-01     
-5.000000e-02     1.110223e-17     -2.500000e-01     -2.000000e-01     -1.500000e-01     
-1.000000e-01     -5.000000e-02     2.220446e-17     -2.500000e-01     -2.000000e-01     
-1.500000e-01     -1.000000e-01     -5.000000e-02     5.551115e-18     -2.500000e-01     
-2.000000e-01     -1.500000e-01     -1.000000e-01     -5.000000e-02     1.110223e-17     
-2.500000e-01     -2.500000e-01     -2.000000e-01     -2.000000e-01     -1.500000e-01     
-1.500000e-01     -1.000000e-01     -1.000000e-01     -5.000000e-02     -5.000000e-02     
1.387779e-17     -1.335737e-17     -2.500000e-01     -2.000000e-01     -1.500000e-01     
-1.000000e-01     -5.000000e-02     -7.285839e-18     -2.500000e-01     -2.000000e-01     
-1.500000e-01     -1.000000e-01     -5.000000e-02     9.714451e-18     -2.500000e-01     
-2.000000e-01     -1.500000e-01     -1.000000e-01     -5.000000e-02     1.942890e-17     
-2.500000e-01     -2.000000e-01     -1.500000e-01     -1.000000e-01     -5.000000e-02     
4.857226e-18     -2.500000e-01     -2.000000e-01     -1.500000e-01     -1.000000e-01     
-5.000000e-02     9.714451e-18     -2.500000e-01     -2.500000e-01     -2.000000e-01     
-2.000000e-01     -1.500000e-01     -1.500000e-01     -1.000000e-01     -1.000000e-01     
-5.000000e-02     -5.000000e-02     6.938894e-18     -1.144917e-17     -2.500000e-01     
-2.000000e-01     -1.500000e-01     -1.000000e-01     -5.000000e-02     -6.245005e-18     
-2.500000e-01     -2.000000e-01     -1.500000e-01     -1.000000e-01     -5.000000e-02     
8.326673e-18     -2.500000e-01     -2.000000e-01     -1.500000e-01     -1.000000e-01     
-5.000000e-02     1.665335e-17     -2.500000e-01     -2.000000e-01     -1.500000e-01     
-1.000000e-01     -5.000000e-02     4.163336e-18     -2.500000e-01     -2.500000e-01     
-2.000000e-01     -2.000000e-01     -1.500000e-01     -1.500000e-01     -1.000000e-01     
-1.000000e-01     -5.000000e-02     -5.000000e-02     -6.938894e-18     -9.540979e-18     
-2.500000e-01     -2.000000e-01     -1.500000e-01     -1.000000e-01     -5.000000e-02     
-5.204170e-18     -2.500000e-01     -2.000000e-01     -1.500000e-01     -1.000000e-01     
-5.000000e-02     6.938894e-18     -2.500000e-01     -2.000000e-01     -1.500000e-01     
-1.000000e-01     -5.000000e-02     1.387779e-17     -2.500000e-01     -2.000000e-01     
-1.500000e-01     -1.000000e-01     -5.000000e-02     3.469447e-18     -2.500000e-01     
-2.500000e-01     -2.000000e-01     -2.000000e-01     -1.500000e-01     -1.500000e-01     
-1.000000e-01     -1.000000e-01     -5.000000e-02     -5.000000e-02     1.387779e-17     
-7.632783e-18     -2.500000e-01     -2.000000e-01     -1.500000e-01     -1.000000e-01     
-5.000000e-02     -4.163336e-18     -2.500000e-01     -2.000000e-01     -1.500000e-01     
-1.000000e-01     -5.000000e-02     5.551115e-18     -2.500000e-01     -2.000000e-01     
-1.500000e-01     -1.000000e-01     -5.000000e-02     1.110223e-17     -2.500000e-01     
-2.000000e-01     -1.500000e-01     -1.000000e-01     -5.000000e-02     2.775558e-18     
-2.500000e-01     -2.500000e-01     -2.000000e-01     -2.000000e-01     -1.500000e-01     
-1.500000e-01     -1.000000e-01     -1.000000e-01     -5.000000e-02     -5.000000e-02     
1.387779e-17     -5.724587e-18     -2.500000e-01     -2.000000e-01     -1.500000e-01     
-1.000000e-01     -5.000000e-02     -3.122502e-18     -2.500000e-01     -2.000000e-01     
-1.500000e-01     -1.000000e-01     -5.000000e-02     4.163336e-18     -2.500000e-01     
-2.000000e-01     -1.500000e-01     -1.000000e-01     -5.000000e-02     8.326673e-18     
-2.500000e-01     -2.000000e-01     -1.500000e-01     -1.000000e-01     -5.000000e-02     
2.081668e-18     -2.500000e-01     -2.500000e-01     -2.000000e-01     -2.000000e-01     
-1.500000e-01     -1.500000e-01     -1.000000e-01     -1.000000e-01     -5.000000e-02     
-5.000000e-02     0.000000e+00     -3.816392e-18     -2.500000e-01     -2.000000e-01     
-1.500000e-01     -1.000000e-01     -5.000000e-02     -2.081668e-18     -2.500000e-01     
-2.000000e-01     -1.500000e-01     -1.000000e-01     -5.000000e-02     2.775558e-18     
-2.500000e-01     -2.000000e-01     -1.500000e-01     -1.000000e-01     -5.000000e-02     
5.551115e-18     -2.500000e-01     -2.500000e-01     -2.000000e-01     -2.000000e-01     
-1.500000e-01     -1.500000e-01     -1.000000e-01     -1.000000e-01     -5.000000e-02     
-5.000000e-02     0.000000e+00     -1.908196e-18     -2.500000e-01     -2.000000e-01     
-1.500000e-01     -1.000000e-01     -5.000000e-02     -1.040834e-18     -2.500000e-01     
-2.000000e-01     -1.500000e-01     -1.000000e-01     -5.000000e-02     1.387779e-18     
-2.500000e-01     -2.000000e-01     -1.500000e-01     -1.000000e-01     -5.000000e-02     
2.775558e-18     -2.500000e-01     -2.500000e-01     -2.000000e-01     -2.000000e-01     
-1.500000e-01     -1.500000e-01     -1.000000e-01     -1.000000e-01     -5.000000e-02     
-5.000000e-02     0.000000e+00     0.000000e+00     -2.500000e-01     -2.000000e-01     
-1.500000e-01     -1.000000e-01     -5.000000e-02     0.000000e+00     -2.500000e-01     
-2.000000e-01     -1.500000e-01     -1.000000e-01     -5.000000e-02     0.000000e+00     
-2.500000e-01     -2.000000e-01     -1.500000e-01     -1.000000e-01     -5.000000e-02     
0.000000e+00     
5.000000e-01     
4.500000e-01     4.500000e-01     5.000000e-01     5.000000e-01     4.500000e-01     
4.500000e-01     5.000000e-01     5.000000e-01     4.500000e-01     4.500000e-01     
5.000000e-01     5.000000e-01     4.500000e-01     4.500000e-01     5.000000e-01     
5.000000e-01     4.500000e-01     4.500000e-01     5.000000e-01     5.000000e-01     
4.500000e-01     4.500000e-01     5.000000e-01     4.000000e-01     4.000000e-01     
4.000000e-01     4.000000e-01     4.000000e-01     4.000000e-01     4.000000e-01     
4.000000e-01     4.000000e-01     4.000000e-01     4.000000e-01     4.000000e-01     
3.500000e-01     3.500000e-01     3.500000e-01     3.500000e-01     3.500000e-01     
3.500000e-01     3.500000e-01     3.500000e-01     3.500000e-01     3.500000e-01     
3.500000e-01     3.500000e-01     3.000000e-01     3.000000e-01     3.000000e-01     
3.000000e-01     3.000000e-01     3.000000e-01     3.000000e-01     3.000000e-01     
3.000000e-01     3.000000e-01     3.000000e-01     3.000000e-01     2.500000e-01     
2.500000e-01     2.500000e-01     2.500000e-01     2.500000e-01     2.500000e-01     
2.500000e-01     2.500000e-01     2.500000e-01     2.500000e-01     2.500000e-01     
2.500000e-01     2.000000e-01     2.000000e-01     2.000000e-01     2.000000e-01     
2.000000e-01     2.000000e-01     2.000000e-01     2.000000e-01     2.000000e-01     
2.000000e-01     2.000000e-01     2.000000e-01     5.000000e-01     4.500000e-01     
5.000000e-01     4.500000e-01     5.000000e-01     4.500000e-01     5.000000e-01     
4.500000e-01     5.000000e-01     4.500000e-01     5.000000e-01     4.500000e-01     
4.000000e-01     4.000000e-01     4.000000e-01     4.000000e-01     4.000000e-01     
4.000000e-01     3.500000e-01     3.500000e-01     3.500000e-01     3.500000e-01     
3.500000e-01     3.500000e-01     3.000000e-01     3.000000e-01     3.000000e-01     
3.000000e-01     3.000000e-01     3.000000e-01     2.500000e-01     2.500000e-01     
2.500000e-01     2.500000e-01     2.500000e-01     2.500000e-01     2.000000e-01     
2.000000e-01     2.000000e-01     2.000000e-01     2.000000e-01     2.000000e-01     
5.000000e-01     4.500000e-01     5.000000e-01     4.500000e-01     5.000000e-01     
4.500000e-01     5.000000e-01     4.500000e-01     5.000000e-01     4.500000e-01     
5.000000e-01     4.500000e-01     4.000000e-01     4.000000e-01     4.000000e-01     
4.000000e-01     4.000000e-01     4.000000e-01     3.500000e-01     3.500000e-01     
3.500000e-01     3.500000e-01     3.500000e-01     3.500000e-01     3.000000e-01     
3.000000e-01     3.000000e-01     3.000000e-01     3.000000e-01     3.000000e-01     
2.500000e-01     2.500000e-01     2.500000e-01     2.500000e-01     2.500000e-01     
2.500000e-01     2.000000e-01     2.000000e-01     2.000000e-01     2.000000e-01     
2.000000e-01     2.000000e-01     5.000000e-01     4.500000e-01     5.000000e-01     
4.500000e-01     5.000000e-01     4.500000e-01     5.000000e-01     4.500000e-01     
5.000000e-01     4.500000e-01     5.000000e-01     4.500000e-01     4.000000e-01     
4.000000e-01     4.000000e-01     4.000000e-01     4.000000e-01     4.000000e-01     
3.500000e-01     3.500000e-01     3.500000e-01     3.500000e-01     3.500000e-01     
3.500000e-01     3.000000e-01     3.000000e-01     3.000000e-01     3.000000e-01     
3.000000e-01     3.000000e-01     2.500000e-01     2.500000e-01     2.500000e-01     
2.500000e-01     2.500000e-01     2.500000e-01     5.000000e-01     4.500000e-01     
5.000000e-01     4.500000e-01     5.000000e-01     4.500000e-01     5.000000e-01     
4.500000e-01     5.000000e-01     4.500000e-01     5.000000e-01     4.500000e-01     
4.000000e-01     4.000000e-01     4.000000e-01     4.000000e-01     4.000000e-01     
4.000000e-01     3.500000e-01     3.500000e-01     3.500000e-01     3.500000e-01     
3.500000e-01     3.500000e-01     3.000000e-01     3.000000e-01     3.000000e-01     
3.000000e-01     3.000000e-01     3.000000e-01     2.500000e-01     2.500000e-01     
2.500000e-01     2.500000e-01     2.500000e-01     2.500000e-01     5.000000e-01     
4.500000e-01     5.000000e-01     4.500000e-01     5.000000e-01     4.500000e-01     
5.000000e-01     4.500000e-01     5.000000e-01     4.500000e-01     5.000000e-01     
4.500000e-01     4.000000e-01     4.000000e-01     4.000000e-01     4.000000e-01     
4.000000e-01     4.000000e-01     3.500000e-01     3.500000e-01     3.500000e-01     
3.500000e-01     3.500000e-01     3.500000e-01     3.000000e-01     3.000000e-01     
3.000000e-01     3.000000e-01     3.000000e-01     3.000000e-01     2.500000e-01     
2.500000e-01     2.500000e-01     2.500000e-01     2.500000e-01     2.500000e-01     
5.000000e-01     4.500000e-01     5.000000e-01     4.500000e-01     5.000000e-01     
4.500000e-01     5.000000e-01     4.500000e-01     5.000000e-01     4.500000e-01     
5.000000e-01     4.500000e-01     4.000000e-01     4.000000e-01     4.000000e-01     
4.000000e-01     4.000000e-01     4.000000e-01     3.500000e-01     3.500000e-01     
3.500000e-01     3.500000e-01     3.500000e-01     3.500000e-01     3.000000e-01     
3.000000e-01     3.000000e-01     3.000000e-01     3.000000e-01     3.000000e-01     
2.500000e-01     2.500000e-01     2.500000e-01     2.500000e-01     2.500000e-01     
2.500000e-01     5.000000e-01     4.500000e-01     5.000000e-01     4.500000e-01     
5.000000e-01     4.500000e-01     5.000000e-01     4.500000e-01     5.000000e-01     
4.500000e-01     5.000000e-01     4.500000e-01     4.000000e-01     4.000000e-01     
4.000000e-01     4.000000e-01     4.000000e-01     4.000000e-01     3.500000e-01     
3.500000e-01     3.500000e-01     3.500000e-01     3.500000e-01     3.500000e-01     
3.000000e-01     3.000000e-01     3.000000e-01     3.000000e-01     3.000000e-01     
3.000000e-01     5.000000e-01     4.500000e-01     5.000000e-01     4.500000e-01     
5.000000e-01     4.500000e-01     5.000000e-01     4.500000e-01     5.000000e-01     
4.500000e-01     5.000000e-01     4.500000e-01     4.000000e-01     4.000000e-01     
4.000000e-01     4.000000e-01     4.000000e-01     4.000000e-01     3.500000e-01     
3.500000e-01     3.500000e-01     3.500000e-01     3.500000e-01     3.500000e-01     
3.000000e-01     3.000000e-01     3.000000e-01     3.000000e-01     3.000000e-01     
3.000000e-01     5.000000e-01     4.500000e-01     5.000000e-01     4.500000e-01     
5.000000e-01     4.500000e-01     5.000000e-01     4.500000e-01     5.000000e-01     
4.500000e-01     5.000000e-01     4.500000e-01     4.000000e-01     4.000000e-01     
4.000000e-01     4.000000e-01     4.000000e-01     4.000000e-01     3.500000e-01     
3.500000e-01     3.500000e-01     3.500000e-01     3.500000e-01     3.500000e-01     
3.000000e-01     3.000000e-01     3.000000e-01     3.000000e-01     3.000000e-01     
3.000000e-01     

0      
0      0      0      0      0      0      0      0      0      0      
0      0      0      0      0      0      0      0      0      0      
0      0      0      0      0      0      0      0      0      0      
0      0      0      0      0      0      0      0      0      0      
0      0      0      0      0      0      0      0      0      0      
0      0      0      0      0      0      0      0      0      0      
0      0      0      0      0      0      0      0      0      0      
0      0      0      0      0      0      0      0      0      0      
0      0      0      0      0      0      0      0      0      0      
0      0      0      0      0      0      0      0      0      0      
0      0      0      0      0      0      0      0      0      0      
0      0      0      0      0      0      0      0      0      0      
0      0      0      0      0      0      0      0      0      0      
0      0      0      0      0      0      0      0      0      0      
0      0      0      0      0      0      0      0      0      0      
0      0      0      0      0      0      0      0      0      0      
0      0      0      0      0      0      0      0      0      0      
0      0      0      0      0      0      0      0      0      0      
0      0      0      0      0      0      0      0      0      0      
0      0      0      0      0      0      0      0      0      0      
0      0      0      0      0      0      0      0      0      0      
0      0      0      0      0      0      0      0      0      0      
0      0      0      0      0      0      0      0      0      0      
0      0      0      0      0      0      0      0      0      0      
0      0      0      0      0      0      0      0      0      1      
1      1      1      1      1      1      1      1      1      1      
1      1      1      1      1      1      1      1      1      1      
1      1      1      1      1      1      1      1      1      1      
1      1      1      1      1      1      1      1      1      1      
1      1      1      1      1      1      1      1      1      1      
1      1      1      1      1      1      1      1      1      1      
1      1      1      1      1      1      1      1      1      1      
1      1      1      1      1      1      1      1      1      1      
1      1      1      1      1      1      1      1      1      1      
1      1      1      1      1      1      1      1      1      1      
1      1      1      1      1      1      1      1      1      1      
1      1      1      1      1      1      1      1      1      1      
1      1      1      1      1      1      1      1      1      1      
1      1      1      1      1      1      1      1      1      1      
1      1      1      1      1      1      1      1      1      1      
1      1      1      1      1      1      1      1      1      1      
1      1      1      1      1      1      1      1      1      1      
1      1      1      1      1      1      1      1      1      1      
1      1      1      1      1      1      1      1      1      1      
1      1      1      1      1      1      1      1      1      1      
1      1      1      1      1      1      1      1      1      1      
1      1      1      1      1      1      1      1      1      1      
1      1      1      1      1      1      1      1      1      1      
1      1      1      1      1      1      1      1      1      1      
1      1      1      1      1      1      1      1      1      1      
1      1      1      1      1      1      1      1      1      

5      6      7      8      9      10      11      12      
8      7      6      5      4      3      2      1      
6      2      3      7      27      25      26      28      
2      6      5      1      86      88      87      85      
9      10      11      12      13      14      15      16      
10      6      7      11      29      27      28      30      
6      10      9      5      88      90      89      87      
13      14      15      16      17      18      19      20      
14      10      11      15      31      29      30      32      
10      14      13      9      90      92      91      89      
17      18      19      20      21      22      23      24      
18      14      15      19      33      31      32      34      
14      18      17      13      92      94      93      91      
22      18      19      23      35      33      34      36      
18      22      21      17      94      96      95      93      
27      25      26      28      39      37      38      40      
25      27      6      2      97      98      88      86      
29      27      28      30      41      39      40      42      
27      29      10      6      98      99      90      88      
31      29      30      32      43      41      42      44      
29      31      14      10      99      100      92      90      
33      31      32      34      45      43      44      46      
31      33      18      14      100      101      94      92      
35      33      34      36      47      45      46      48      
33      35      22      18      101      102      96      94      
39      37      38      40      51      49      50      52      
37      39      27      25      103      104      98      97      
41      39      40      42      53      51      52      54      
39      41      29      27      104      105      99      98      
43      41      42      44      55      53      54      56      
41      43      31      29      105      106      100      99      
45      43      44      46      57      55      56      58      
43      45      33      31      106      107      101      100      
47      45      46      48      59      57      58      60      
45      47      35      33      107      108      102      101      
51      49      50      52      63      61      62      64      
49      51      39      37      109      110      104      103      
53      51      52      54      65      63      64      66      
51      53      41      39      110      111      105      104      
55      53      54      56      67      65      66      68      
53      55      43      41      111      112      106      105      
57      55      56      58      69      67      68      70      
55      57      45      43      112      113      107      106      
59      57      58      60      71      69      70      72      
57      59      47      45      113      114      108      107      
63      61      62      64      75      73      74      76      
61      63      51      49      115      116      110      109      
65      63      64      66      77      75      76      78      
63      65      53      51      116      117      111      110      
67      65      66      68      79      77      78      80      
65      67      55      53      117      118      112      111      
69      67      68      70      81      79      80      82      
67      69      57      55      118      119      113      112      
71      69      70      72      83      81      82      84      
69      71      59      57      119      120      114      113      
73      75      63      61      121      122      116      115      
75      77      65      63      122      123      117      116      
77      79      67      65      123      124      118      117      
79      81      69      67      124      125      119      118      
81      83      71      69      125      126      120      119      
86      88      87      85      128      130      129      127      
88      90      89      87      130      132      131      129      
90      92      91      89      132      134      133      131      
92      94      93      91      134      136      135      133      
94      96      95      93      136      138      137      135      
97      98      88      86      139      140      130      128      
98      99      90      88      140      141      132      130      
99      100      92      90      141      142      134      132      
100      101      94      92      142      143      136      134      
101      102      96      94      143      144      138      136      
103      104      98      97      145      146      140      139      
104      105      99      98      146      147      141      140      
105      106      100      99      147      148      142      141      
106      107      101      100      148      149      143      142      
107      108      102      101      149      150      144      143      
109      110      104      103      151      152      146      145      