title = " tecplot file for process Mesh " 
variables = "x",  "y", "z", "cell_type" 
zone N = 5 E = 8 DATAPACKING = BLOCK,  VARLOCATION = ([4]=CELLCENTERED), ZONETYPE=FETRIANGLE 
3.333333e-01     
2.249186e-01     7.750815e-01     6.666667e-01     5.000000e-01     
0.000000e+00     
2.172480e-01     2.172480e-01     0.000000e+00     2.457250e-01     
0.000000e+00     
0.000000e+00     0.000000e+00     0.000000e+00     0.000000e+00     

0      
0      0      1      1      1      1      1      

5      4      3      
5      4      1      
5      1      2      
1      4       1      
2      1       2      
3      5       3      
5      2       5      
4      3       4      
