Title = " tecplot out file" 
variables = "x", "y", "z", "velX", "velY", "velZ","density","pressure","viscosity","temperature", "collisionFrequency",
Zone T = "nmesh0" N = 121 E = 100 DATAPACKING = BLOCK, VARLOCATION = ([4-11]=CELLCENTERED),  ZONETYPE=FEQUADRILATERAL 
0.0    
0.0    
0.1    
0.1    
0.0    

0.1    
0.0    
0.1    
0.0    
0.1    

0.0    
0.1    
0.0    
0.1    
0.0    

0.1    
0.0    
0.1    
0.0    
0.1    

0.0    
0.1    
0.2    
0.2    
0.2    

0.2    
0.2    
0.2    
0.2    
0.2    

0.2    
0.2    
0.2    
0.3    
0.3    

0.3    
0.3    
0.3    
0.3    
0.3    

0.3    
0.3    
0.3    
0.3    
0.4    

0.4    
0.4    
0.4    
0.4    
0.4    

0.4    
0.4    
0.4    
0.4    
0.4    

0.5    
0.5    
0.5    
0.5    
0.5    

0.5    
0.5    
0.5    
0.5    
0.5    

0.5    
0.6    
0.6    
0.6    
0.6    

0.6    
0.6    
0.6    
0.6    
0.6    

0.6    
0.6    
0.7    
0.7    
0.7    

0.7    
0.7    
0.7    
0.7    
0.7    

0.7    
0.7    
0.7    
0.8    
0.8    

0.8    
0.8    
0.8    
0.8    
0.8    

0.8    
0.8    
0.8    
0.8    
0.9    

0.9    
0.9    
0.9    
0.9    
0.9    

0.9    
0.9    
0.9    
0.9    
0.9    

1.0    
1.0    
1.0    
1.0    
1.0    

1.0    
1.0    
1.0    
1.0    
1.0    

1.0    
1.0    
0.9    
1.0    
0.9    
0.8    

0.8    
0.7    
0.7    
0.6    
0.6    

0.5    
0.5    
0.4    
0.4    
0.3    

0.3    
0.2    
0.2    
0.1    
0.1    

0.0    
0.0    
1.0    
0.9    
0.8    

0.7    
0.6    
0.5    
0.4    
0.3    

0.2    
0.1    
0.0    
1.0    
0.9    

0.8    
0.7    
0.6    
0.5    
0.4    

0.3    
0.2    
0.1    
0.0    
1.0    

0.9    
0.8    
0.7    
0.6    
0.5    

0.4    
0.3    
0.2    
0.1    
0.0    

1.0    
0.9    
0.8    
0.7    
0.6    

0.5    
0.4    
0.3    
0.2    
0.1    

0.0    
1.0    
0.9    
0.8    
0.7    

0.6    
0.5    
0.4    
0.3    
0.2    

0.1    
0.0    
1.0    
0.9    
0.8    

0.7    
0.6    
0.5    
0.4    
0.3    

0.2    
0.1    
0.0    
1.0    
0.9    

0.8    
0.7    
0.6    
0.5    
0.4    

0.3    
0.2    
0.1    
0.0    
1.0    

0.9    
0.8    
0.7    
0.6    
0.5    

0.4    
0.3    
0.2    
0.1    
0.0    

0.9    
1.0    
0.8    
0.7    
0.6    

0.5    
0.4    
0.3    
0.2    
0.1    

0.0    
0.0    0.0    0.0    0.0    0.0    
0.0    0.0    0.0    0.0    0.0    
0.0    0.0    0.0    0.0    0.0    
0.0    0.0    0.0    0.0    0.0    
0.0    0.0    0.0    0.0    0.0    
0.0    0.0    0.0    0.0    0.0    
0.0    0.0    0.0    0.0    0.0    
0.0    0.0    0.0    0.0    0.0    
0.0    0.0    0.0    0.0    0.0    
0.0    0.0    0.0    0.0    0.0    
0.0    0.0    0.0    0.0    0.0    
0.0    0.0    0.0    0.0    0.0    
0.0    0.0    0.0    0.0    0.0    
0.0    0.0    0.0    0.0    0.0    
0.0    0.0    0.0    0.0    0.0    
0.0    0.0    0.0    0.0    0.0    
0.0    0.0    0.0    0.0    0.0    
0.0    0.0    0.0    0.0    0.0    
0.0    0.0    0.0    0.0    0.0    
0.0    0.0    0.0    0.0    0.0    
0.0    0.0    0.0    0.0    0.0    
0.0    0.0    0.0    0.0    0.0    
0.0    0.0    0.0    0.0    0.0    
0.0    0.0    0.0    0.0    0.0    
0.0    
-4.66421037569e-08    -9.36632469219e-08    -9.36696316317e-08    -9.36696341345e-08    -9.36696341345e-08    
-9.36696341345e-08    -9.3669634079e-08    -9.36696313886e-08    -9.36632471514e-08    -4.6642103144e-08    
-2.06896495259e-11    -4.21494199461e-11    -4.21662211868e-11    -4.21666272488e-11    -4.21666271396e-11    
-4.21666271396e-11    -4.21666320057e-11    -4.21667866533e-11    -4.21502458686e-11    -2.06881900815e-11    
-1.68475109601e-14    -3.3325751382e-14    -3.34654966658e-14    -3.37840526734e-14    -3.3780582371e-14    
-3.3780582371e-14    -3.37299025244e-14    -3.37737585031e-14    -3.39215383402e-14    -1.61325867346e-14    
-3.51955643962e-16    2.16435663141e-16    3.84887949386e-17    -6.5305246537e-17    -6.5226599326e-17    
-6.53043995036e-17    -1.04253934974e-17    -9.17630277706e-17    -1.49513047671e-16    3.69166417863e-16    
-3.41710056356e-16    2.40927341592e-16    6.36847225303e-17    -3.81951964024e-17    -3.81954116509e-17    
-3.81951897818e-17    1.3132298932e-17    -6.80874009613e-17    -1.26359388284e-16    3.74325316764e-16    
-3.417096182e-16    2.40927328354e-16    6.37266574616e-17    -3.81947828351e-17    -3.81943526912e-17    
-3.81943526945e-17    1.31323022782e-17    -6.80870537467e-17    -1.26359387443e-16    3.74325316766e-16    
-3.417096182e-16    2.40927328354e-16    6.37266574616e-17    7.28275746583e-17    7.28280048021e-17    
7.28280047989e-17    6.86434810249e-17    4.29353037467e-17    -7.08482086952e-17    3.74325316766e-16    
1.62670233217e-14    3.38251904708e-14    3.38700515688e-14    3.37126014716e-14    3.37126014782e-14    
3.37126014782e-14    3.37084178015e-14    3.3405153307e-14    3.3457903755e-14    1.67260447075e-14    
2.06882239872e-11    4.21502159669e-11    4.21668703863e-11    4.21665483235e-11    4.21665484846e-11    
4.21665485408e-11    4.21665409408e-11    4.21662785823e-11    4.21495241068e-11    2.06897134354e-11    
4.66421069091e-08    9.36632525353e-08    9.36696370527e-08    9.36696395226e-08    9.36696395505e-08    
9.36696395505e-08    9.36696395461e-08    9.36696369597e-08    9.36632520328e-08    4.66421071083e-08    

4.63901712153e-08    2.0688156293e-11    1.65587026588e-14    2.29007050507e-17    2.29007050507e-17    
2.29007050507e-17    2.29007050507e-17    -1.64917473128e-14    -2.06881491249e-11    -4.63901704268e-08    
9.36632495006e-08    4.21501679971e-11    3.37149353079e-14    6.50454305033e-17    5.80791092126e-17    
5.80791092126e-17    4.53367840958e-17    -3.35917702967e-14    -4.21500703122e-11    -9.36632489482e-08    
9.36696350351e-08    4.21667136901e-11    3.37082220064e-14    4.87495557725e-17    2.70244192145e-17    
2.70244192145e-17    -1.19164883024e-17    -3.36194425858e-14    -4.21667047348e-11    -9.36696341481e-08    
9.36696377019e-08    4.2166747681e-11    3.36867953615e-14    7.78517554108e-18    6.90812602732e-18    
6.89028354695e-18    -3.35651965907e-17    -3.36270314529e-14    -4.21666938362e-11    -9.36696370712e-08    
9.36696377088e-08    4.21667596257e-11    3.36755862445e-14    9.93853706903e-18    2.10470290612e-18    
2.10474773157e-18    -3.84947746155e-17    -3.36258041553e-14    -4.21666910604e-11    -9.36696370742e-08    
9.36696377088e-08    4.21667596256e-11    3.36755870969e-14    9.93948458964e-18    2.10590742624e-18    
2.10484863251e-18    -3.84947695209e-17    -3.36258041832e-14    -4.21666910604e-11    -9.36696370742e-08    
9.36696377088e-08    4.21667596256e-11    3.36755870969e-14    9.93948458964e-18    -2.56496819471e-17    
-2.56507407408e-17    -3.84947695209e-17    -3.36258041832e-14    -4.21666910604e-11    -9.36696370742e-08    
9.36696350721e-08    4.21667595985e-11    3.36764605549e-14    3.76949684845e-17    2.10558978872e-18    
2.10558977378e-18    -3.85218745887e-17    -3.36535597726e-14    -4.21666633048e-11    -9.3669634524e-08    
9.3663250601e-08    4.21501667147e-11    3.3655180652e-14    3.20026633704e-17    -3.60081470024e-18    
-3.58671513414e-18    -4.39879161041e-17    -3.36303904636e-14    -4.21500657726e-11    -9.36632499504e-08    
4.63901724613e-08    2.06882145367e-11    1.65429924978e-14    2.27440025922e-17    2.1856167104e-17    
2.18492166867e-17    8.00384969542e-18    -1.65233179337e-14    -2.06881246905e-11    -4.63901712892e-08    

4.102009693e-17    2.01624316722e-17    2.74969173646e-17    2.03025099608e-17    2.03025099608e-17    
2.03025099608e-17    2.03025099608e-17    3.58171579866e-17    2.81347787016e-17    -1.1754408733e-17    
2.53953747464e-17    2.0603429137e-17    2.33843904887e-17    3.37859603404e-17    3.07535808861e-17    
3.07535808861e-17    3.11423227659e-17    3.71612321746e-17    4.29472499214e-17    2.9189948381e-17    
3.13566811497e-17    2.03540344943e-17    2.74694315518e-17    1.41647550966e-17    1.41647550966e-17    
1.41647550966e-17    1.38593648395e-17    1.50609125084e-17    3.18718776096e-17    1.24940354303e-17    
1.35134368919e-17    2.41960790584e-17    2.20481048281e-17    4.61048915849e-18    4.62297458657e-18    
4.61048915849e-18    8.48677417174e-18    1.41812725128e-17    2.14833302347e-17    1.30687640195e-17    
1.33443291593e-17    2.57115210358e-17    2.97851919574e-17    5.50309165275e-18    5.72331357967e-18    
5.72334679804e-18    5.52979911802e-18    1.49174495992e-17    2.111230659e-17    1.28519236851e-17    
1.33443060896e-17    2.57153293755e-17    2.97818299329e-17    5.50322389662e-18    5.72350551327e-18    
5.72345257207e-18    5.52641182711e-18    1.4917445772e-17    2.11123070327e-17    1.28519234782e-17    
2.72221007305e-17    2.57153293755e-17    2.28429325895e-17    5.50322389662e-18    5.72350551327e-18    
5.72345257207e-18    5.52641182711e-18    1.4917445772e-17    2.11123070327e-17    2.67297181192e-17    
2.15808586276e-17    3.95622073446e-17    1.28755640974e-17    1.93807803422e-17    1.96010090322e-17    
1.96010090177e-17    1.93805160493e-17    1.49106430352e-17    2.11122540931e-17    3.08616016492e-17    
3.62267405391e-17    3.29159051262e-17    1.4309895064e-17    1.06738207467e-17    9.15528549204e-18    
9.15591048307e-18    9.80382745448e-18    4.95960320995e-18    1.32472836143e-17    1.60869756213e-17    
2.70361812425e-17    2.85577721164e-17    2.86872119693e-17    2.64859086441e-17    2.69200211868e-17    
2.69195906573e-17    2.69382748879e-17    1.00940618216e-17    3.33534231709e-17    2.90185428499e-17    

0.999999506778    0.9999995076    0.999999507622    0.999999507622    0.999999507622    
0.999999507622    0.999999507622    0.999999507622    0.9999995076    0.999999506778    
0.9999995076    0.999999504282    0.999999504304    0.999999504304    0.999999504304    
0.999999504304    0.999999504304    0.999999504304    0.999999504282    0.9999995076    
0.999999507622    0.999999504304    0.999999504327    0.999999504327    0.999999504327    
0.999999504327    0.999999504327    0.999999504327    0.999999504304    0.999999507622    
0.999999507622    0.999999504304    0.999999504327    0.999999504327    0.999999504327    
0.999999504327    0.999999504327    0.999999504327    0.999999504304    0.999999507622    
0.999999507622    0.999999504304    0.999999504327    0.999999504327    0.999999504327    
0.999999504327    0.999999504327    0.999999504327    0.999999504304    0.999999507622    
0.999999507622    0.999999504304    0.999999504327    0.999999504327    0.999999504327    
0.999999504327    0.999999504327    0.999999504327    0.999999504304    0.999999507622    
0.999999507622    0.999999504304    0.999999504327    0.999999504327    0.999999504327    
0.999999504327    0.999999504327    0.999999504327    0.999999504304    0.999999507622    
0.999999507622    0.999999504304    0.999999504327    0.999999504327    0.999999504327    
0.999999504327    0.999999504327    0.999999504327    0.999999504304    0.999999507622    
0.9999995076    0.999999504282    0.999999504304    0.999999504304    0.999999504304    
0.999999504304    0.999999504304    0.999999504304    0.999999504282    0.9999995076    
0.999999506778    0.9999995076    0.999999507622    0.999999507622    0.999999507622    
0.999999507622    0.999999507622    0.999999507622    0.9999995076    0.999999506778    

1.00000589223    1.00000607307    1.00000607312    1.00000607312    1.00000607312    
1.00000607312    1.00000607312    1.00000607312    1.00000607307    1.00000589223    
1.00000607307    1.00000643671    1.0000064368    1.0000064368    1.0000064368    
1.0000064368    1.0000064368    1.0000064368    1.00000643671    1.00000607307    
1.00000607312    1.0000064368    1.0000064369    1.0000064369    1.0000064369    
1.0000064369    1.0000064369    1.0000064369    1.0000064368    1.00000607312    
1.00000607312    1.0000064368    1.0000064369    1.0000064369    1.0000064369    
1.0000064369    1.0000064369    1.0000064369    1.0000064368    1.00000607312    
1.00000607312    1.0000064368    1.0000064369    1.0000064369    1.0000064369    
1.0000064369    1.0000064369    1.0000064369    1.0000064368    1.00000607312    
1.00000607312    1.0000064368    1.0000064369    1.0000064369    1.0000064369    
1.0000064369    1.0000064369    1.0000064369    1.0000064368    1.00000607312    
1.00000607312    1.0000064368    1.0000064369    1.0000064369    1.0000064369    
1.0000064369    1.0000064369    1.0000064369    1.0000064368    1.00000607312    
1.00000607312    1.0000064368    1.0000064369    1.0000064369    1.0000064369    
1.0000064369    1.0000064369    1.0000064369    1.0000064368    1.00000607312    
1.00000607307    1.00000643671    1.0000064368    1.0000064368    1.0000064368    
1.0000064368    1.0000064368    1.0000064368    1.00000643671    1.00000607307    
1.00000589223    1.00000607307    1.00000607312    1.00000607312    1.00000607312    
1.00000607312    1.00000607312    1.00000607312    1.00000607307    1.00000589223    

2.25028812488e-07    2.250288453e-07    2.25028845306e-07    2.25028845306e-07    2.25028845306e-07    
2.25028845306e-07    2.25028845306e-07    2.25028845306e-07    2.250288453e-07    2.25028812488e-07    
2.250288453e-07    2.25028912186e-07    2.250289122e-07    2.250289122e-07    2.250289122e-07    
2.250289122e-07    2.250289122e-07    2.250289122e-07    2.25028912186e-07    2.250288453e-07    
2.25028845306e-07    2.250289122e-07    2.25028912213e-07    2.25028912213e-07    2.25028912213e-07    
2.25028912213e-07    2.25028912213e-07    2.25028912213e-07    2.250289122e-07    2.25028845306e-07    
2.25028845306e-07    2.250289122e-07    2.25028912213e-07    2.25028912213e-07    2.25028912213e-07    
2.25028912213e-07    2.25028912213e-07    2.25028912213e-07    2.250289122e-07    2.25028845306e-07    
2.25028845306e-07    2.250289122e-07    2.25028912213e-07    2.25028912213e-07    2.25028912213e-07    
2.25028912213e-07    2.25028912213e-07    2.25028912213e-07    2.250289122e-07    2.25028845306e-07    
2.25028845306e-07    2.250289122e-07    2.25028912213e-07    2.25028912213e-07    2.25028912213e-07    
2.25028912213e-07    2.25028912213e-07    2.25028912213e-07    2.250289122e-07    2.25028845306e-07    
2.25028845306e-07    2.250289122e-07    2.25028912213e-07    2.25028912213e-07    2.25028912213e-07    
2.25028912213e-07    2.25028912213e-07    2.25028912213e-07    2.250289122e-07    2.25028845306e-07    
2.25028845306e-07    2.250289122e-07    2.25028912213e-07    2.25028912213e-07    2.25028912213e-07    
2.25028912213e-07    2.25028912213e-07    2.25028912213e-07    2.250289122e-07    2.25028845306e-07    
2.250288453e-07    2.25028912186e-07    2.250289122e-07    2.250289122e-07    2.250289122e-07    
2.250289122e-07    2.250289122e-07    2.250289122e-07    2.25028912186e-07    2.250288453e-07    
2.25028812488e-07    2.250288453e-07    2.25028845306e-07    2.25028845306e-07    2.25028845306e-07    
2.25028845306e-07    2.25028845306e-07    2.25028845306e-07    2.250288453e-07    2.25028812488e-07    

1.00000638545    1.00000656547    1.0000065655    1.0000065655    1.0000065655    
1.0000065655    1.0000065655    1.0000065655    1.00000656547    1.00000638545    
1.00000656547    1.00000693243    1.0000069325    1.0000069325    1.0000069325    
1.0000069325    1.0000069325    1.0000069325    1.00000693243    1.00000656547    
1.0000065655    1.0000069325    1.00000693257    1.00000693257    1.00000693257    
1.00000693257    1.00000693257    1.00000693257    1.0000069325    1.0000065655    
1.0000065655    1.0000069325    1.00000693257    1.00000693257    1.00000693257    
1.00000693257    1.00000693257    1.00000693257    1.0000069325    1.0000065655    
1.0000065655    1.0000069325    1.00000693257    1.00000693257    1.00000693257    
1.00000693257    1.00000693257    1.00000693257    1.0000069325    1.0000065655    
1.0000065655    1.0000069325    1.00000693257    1.00000693257    1.00000693257    
1.00000693257    1.00000693257    1.00000693257    1.0000069325    1.0000065655    
1.0000065655    1.0000069325    1.00000693257    1.00000693257    1.00000693257    
1.00000693257    1.00000693257    1.00000693257    1.0000069325    1.0000065655    
1.0000065655    1.0000069325    1.00000693257    1.00000693257    1.00000693257    
1.00000693257    1.00000693257    1.00000693257    1.0000069325    1.0000065655    
1.00000656547    1.00000693243    1.0000069325    1.0000069325    1.0000069325    
1.0000069325    1.0000069325    1.0000069325    1.00000693243    1.00000656547    
1.00000638545    1.00000656547    1.0000065655    1.0000065655    1.0000065655    
1.0000065655    1.0000065655    1.0000065655    1.00000656547    1.00000638545    

1239.53483819    1239.5348816    1239.53488164    1239.53488164    1239.53488164    
1239.53488164    1239.53488164    1239.53488164    1239.5348816    1239.53483819    
1239.5348816    1239.53496391    1239.53496396    1239.53496396    1239.53496396    
1239.53496396    1239.53496396    1239.53496396    1239.53496391    1239.5348816    
1239.53488164    1239.53496396    1239.534964    1239.534964    1239.534964    
1239.534964    1239.534964    1239.534964    1239.53496396    1239.53488164    
1239.53488164    1239.53496396    1239.534964    1239.534964    1239.534964    
1239.534964    1239.534964    1239.534964    1239.53496396    1239.53488164    
1239.53488164    1239.53496396    1239.534964    1239.534964    1239.534964    
1239.534964    1239.534964    1239.534964    1239.53496396    1239.53488164    
1239.53488164    1239.53496396    1239.534964    1239.534964    1239.534964    
1239.534964    1239.534964    1239.534964    1239.53496396    1239.53488164    
1239.53488164    1239.53496396    1239.534964    1239.534964    1239.534964    
1239.534964    1239.534964    1239.534964    1239.53496396    1239.53488164    
1239.53488164    1239.53496396    1239.534964    1239.534964    1239.534964    
1239.534964    1239.534964    1239.534964    1239.53496396    1239.53488164    
1239.5348816    1239.53496391    1239.53496396    1239.53496396    1239.53496396    
1239.53496396    1239.53496396    1239.53496396    1239.53496391    1239.5348816    
1239.53483819    1239.5348816    1239.53488164    1239.53488164    1239.53488164    
1239.53488164    1239.53488164    1239.53488164    1239.5348816    1239.53483819    

2     4     3     1     4     2     5     6     6     5     7     8     8     7     9     10     10     9     11     12     12     11     13     14     14     13     15     16     16     15     17     18     18     17     19     20     20     19     21     22     3     4     24     23     4     6     25     24     6     8     26     25     8     10     27     26     10     12     28     27     12     14     29     28     14     16     30     29     16     18     31     30     18     20     32     31     20     22     33     32     23     24     35     34     24     25     36     35     25     26     37     36     26     27     38     37     27     28     39     38     28     29     40     39     29     30     41     40     30     31     42     41     31     32     43     42     32     33     44     43     34     35     46     45     35     36     47     46     36     37     48     47     37     38     49     48     38     39     50     49     39     40     51     50     40     41     52     51     41     42     53     52     42     43     54     53     43     44     55     54     45     46     57     56     46     47     58     57     47     48     59     58     48     49     60     59     49     50     61     60     50     51     62     61     51     52     63     62     52     53     64     63     53     54     65     64     54     55     66     65     56     57     68     67     57     58     69     68     58     59     70     69     59     60     71     70     60     61     72     71     61     62     73     72     62     63     74     73     63     64     75     74     64     65     76     75     65     66     77     76     67     68     79     78     68     69     80     79     69     70     81     80     70     71     82     81     71     72     83     82     72     73     84     83     73     74     85     84     74     75     86     85     75     76     87     86     76     77     88     87     78     79     90     89     79     80     91     90     80     81     92     91     81     82     93     92     82     83     94     93     83     84     95     94     84     85     96     95     85     86     97     96     86     87     98     97     87     88     99     98     89     90     101     100     90     91     102     101     91     92     103     102     92     93     104     103     93     94     105     104     94     95     106     105     95     96     107     106     96     97     108     107     97     98     109     108     98     99     110     109     100     101     111     112     101     102     113     111     102     103     114     113     103     104     115     114     104     105     116     115     105     106     117     116     106     107     118     117     107     108     119     118     108     109     120     119     109     110     121     120     

