title = " tecplot file for process Mesh " 
variables = "x",  "y", "z", "cell_type" 
zone N = 5 E = 8 DATAPACKING = BLOCK,  VARLOCATION = ([4]=CELLCENTERED), ZONETYPE=FETRIANGLE 
1.000000e+00     
8.248586e-01     1.000000e+00     7.500000e-01     5.881301e-01     
1.000000e+00     
8.181935e-01     7.500000e-01     1.000000e+00     7.216039e-01     
0.000000e+00     
0.000000e+00     0.000000e+00     0.000000e+00     0.000000e+00     

0      
0      1      1      1      1      0      1      

1      2      3      
1      2      4      
4      2      5      
1      4       1      
3      1       3      
4      5       4      
2      3       2      
5      2       5      
