title = " tecplot file for process Mesh " 
variables = "x",  "y", "z", "cell_type" 
zone N = 6 E = 10 DATAPACKING = BLOCK,  VARLOCATION = ([4]=CELLCENTERED), ZONETYPE=FETRIANGLE 
1.000000e+00     
8.086026e-01     7.500000e-01     1.000000e+00     8.560590e-01     1.000000e+00     

0.000000e+00     
2.109754e-01     0.000000e+00     2.500000e-01     4.006476e-01     5.000000e-01     

0.000000e+00     
0.000000e+00     0.000000e+00     0.000000e+00     0.000000e+00     0.000000e+00     


0      
0      1      1      0      1      1      0      1      1      

1      2      3      
1      2      4      
4      2      5      
4      5      6      
3      1       3      
1      4       1      
4      6       4      
5      2       5      
6      5       6      
2      3       2      
