title = " tecplot file for process Mesh " 
variables = "x",  "y", "z", "cell_type" 
zone N = 279 E = 1347 DATAPACKING = BLOCK,  VARLOCATION = ([4]=CELLCENTERED), ZONETYPE=FETETRAHEDRON 
-5.000000e-01     
-5.000000e-01     -4.138705e-01     -5.000000e-01     -2.000000e-01     -2.448213e-01     
-2.357547e-01     -3.000000e-01     5.080864e-02     0.000000e+00     -3.540247e-02     
-5.000000e-01     -5.000000e-01     -4.027380e-01     -5.000000e-01     -1.355271e-01     
-1.456890e-01     -1.000000e-01     -4.162747e-01     -5.000000e-01     -5.000000e-01     
-4.722246e-02     -5.000000e-01     -5.000000e-01     -4.144943e-01     -5.000000e-01     
-5.000000e-01     -4.296631e-01     -4.306243e-01     -5.000000e-01     -4.184488e-01     
-5.000000e-01     -5.000000e-01     -5.000000e-01     -4.156480e-01     -5.000000e-01     
-4.158524e-01     -5.000000e-01     -4.000000e-01     -3.434496e-01     -3.393101e-01     
-5.000000e-01     -4.229687e-01     -5.000000e-01     -5.000000e-01     -5.000000e-01     
-5.000000e-01     -5.000000e-01     -4.185837e-01     -5.000000e-01     -5.000000e-01     
-4.203127e-01     -5.000000e-01     -5.000000e-01     -5.000000e-01     -5.000000e-01     
-5.000000e-01     -4.123059e-01     -5.000000e-01     -5.000000e-01     -4.194518e-01     
-4.198408e-01     -4.211338e-01     -5.000000e-01     -4.149058e-01     -5.000000e-01     
-5.000000e-01     -4.187052e-01     -4.176478e-01     -3.283097e-01     -4.188366e-01     
-5.000000e-01     -4.054596e-01     -4.181735e-01     -5.000000e-01     -5.000000e-01     
-4.174432e-01     -3.985716e-01     -4.075333e-01     4.200367e-02     -9.031392e-03     
-5.995058e-02     -9.147264e-03     -9.207013e-03     -6.869719e-02     5.022342e-02     
-2.463127e-01     -2.801921e-01     -2.601134e-01     -3.341502e-01     -2.758446e-01     
-2.361093e-01     -3.313112e-01     -1.741321e-01     -2.243650e-01     -2.632082e-01     
-2.323866e-01     -2.759888e-01     -3.323717e-01     -2.145795e-01     -1.650390e-01     
-1.174383e-01     -1.185787e-01     -7.986896e-02     -6.867730e-02     -9.001806e-02     
1.180346e-01     9.917837e-02     -8.199876e-03     -9.600407e-03     4.807595e-02     
-1.286335e-01     -1.173383e-01     -1.634307e-01     -5.767558e-03     -2.876668e-02     
4.852548e-03     9.838253e-03     -3.431829e-01     -2.920560e-01     -3.347548e-01     
-1.486281e-01     -1.848863e-01     -2.427204e-01     -2.427025e-01     -1.633102e-01     
-3.007907e-01     -2.392707e-01     -1.286198e-01     -1.770669e-01     -3.006369e-01     
-1.793753e-01     -3.051846e-01     -3.942657e-01     -4.235672e-01     -5.000000e-01     
-4.032624e-01     -5.000000e-01     -4.098612e-01     -4.166970e-01     -4.073702e-01     
-4.060760e-01     -3.158608e-01     -3.537007e-01     -1.653230e-01     -1.905174e-01     
-1.608440e-01     2.432708e-02     -4.244873e-03     -2.952837e-02     -1.449325e-01     
-9.388576e-02     7.343925e-04     -3.122635e-01     -4.291954e-01     7.451989e-03     
-7.212862e-02     -6.099103e-02     -3.949485e-01     -4.012454e-01     -2.961233e-01     
-3.326272e-01     -3.111418e-01     -3.376967e-01     -2.991160e-01     -3.565180e-01     
-3.233067e-01     -2.301975e-01     -3.502059e-01     -2.833985e-01     -2.294137e-01     
-2.274926e-01     -3.493834e-01     -3.323582e-01     -2.491532e-01     -8.912863e-02     
-2.410730e-01     -3.057680e-01     -3.699585e-01     -2.808388e-01     -3.381802e-01     
-3.622040e-01     -2.062115e-01     -1.875370e-01     -3.023422e-01     -2.745640e-01     
-2.008274e-01     -7.803892e-02     -5.687357e-02     -9.244673e-02     -1.957749e-01     
-6.117448e-02     -3.031029e-01     -2.858783e-01     -2.331233e-01     -3.356850e-01     
-4.205179e-02     -9.875752e-02     -2.636471e-02     -1.294957e-01     -1.208231e-01     
3.918877e-02     3.186261e-02     9.417713e-02     -3.394273e-01     -2.924643e-01     
-3.474381e-01     -2.044177e-01     -1.869388e-01     -2.956912e-01     -3.316247e-01     
-1.347634e-01     -9.680503e-02     3.693300e-02     4.568436e-02     -3.245935e-02     
-1.117969e-02     3.383085e-02     -1.376859e-01     -1.341925e-02     -1.324063e-01     
-3.104070e-01     -3.546399e-01     -4.118508e-02     -2.343745e-01     -2.291930e-01     
-4.975425e-02     -1.874367e-01     -1.280405e-01     -1.442420e-01     -1.436141e-01     
-2.402395e-01     -3.292940e-01     7.905179e-02     9.249366e-02     1.158583e-01     
-1.283116e-01     -2.453883e-01     -2.226762e-01     -1.581102e-01     -7.154611e-02     
-5.282128e-02     -1.478879e-01     -4.619762e-02     -1.957481e-02     -1.660979e-01     
1.084511e-01     1.016838e-01     -9.914444e-02     -2.086870e-01     1.507115e-02     
2.622141e-02     4.206163e-02     9.364570e-02     -1.450965e-01     -1.836712e-01     
-2.272779e-01     -2.383653e-01     -1.194042e-01     -1.901810e-01     -9.435983e-02     
-7.328833e-02     4.099856e-02     -7.100724e-02     2.500251e-03     -2.441756e-02     
-1.514510e-01     -1.179282e-01     -1.243483e-01     -8.187116e-02     3.651089e-03     
-3.380982e-01     -3.351896e-01     -2.431211e-01     -2.607704e-01     -1.862195e-01     
4.158654e-03     -1.184857e-01     -6.652962e-02     
-4.148503e-01     
-5.000000e-01     -5.000000e-01     -5.000000e-01     -5.000000e-01     -4.128339e-01     
-5.000000e-01     -5.000000e-01     -4.172929e-01     -5.000000e-01     -5.000000e-01     
-3.000000e-01     -3.394627e-01     -3.377795e-01     -4.000000e-01     -5.000000e-01     
-4.120807e-01     -5.000000e-01     -5.000000e-01     -4.172805e-01     -5.000000e-01     
-4.148621e-01     -2.000000e-01     -2.358458e-01     -2.341118e-01     -4.306860e-01     
-5.000000e-01     -4.299559e-01     -5.000000e-01     -5.000000e-01     -5.000000e-01     
-4.186464e-01     -5.000000e-01     -4.161203e-01     -5.000000e-01     -5.000000e-01     
-5.000000e-01     -4.166445e-01     -5.000000e-01     -4.169262e-01     -5.000000e-01     
-2.636376e-01     -2.829296e-01     -3.360925e-01     -3.334971e-01     -2.490588e-01     
-3.295694e-01     -2.396219e-01     -2.789189e-01     -3.251314e-01     -8.366834e-03     
-5.276190e-02     5.240016e-02     -7.039417e-02     -7.952470e-02     -1.694939e-01     
-2.636000e-01     -2.246238e-01     -1.744257e-01     -2.334176e-01     -3.962650e-01     
-3.900058e-01     -3.885426e-01     -1.672063e-01     -2.165609e-01     -1.192000e-01     
-3.329283e-01     -3.892317e-01     -3.874447e-01     -5.000000e-01     -3.840169e-01     
-4.120689e-01     -1.189335e-01     -7.989080e-02     -6.874158e-02     -1.355545e-01     
-3.821111e-01     -1.273472e-01     -2.986385e-01     -5.000000e-01     -4.167469e-01     
-5.000000e-01     -5.000000e-01     -4.028995e-01     -5.000000e-01     -5.000000e-01     
-5.000000e-01     -4.289860e-01     -5.000000e-01     -5.000000e-01     -4.175052e-01     
-5.000000e-01     -5.000000e-01     -5.000000e-01     -4.128116e-01     -5.000000e-01     
-5.000000e-01     -4.074786e-01     -5.000000e-01     -4.137066e-01     -5.000000e-01     
-4.074352e-01     -5.000000e-01     -4.108879e-01     -5.000000e-01     -3.251517e-01     
-5.000000e-01     -4.035043e-01     -5.000000e-01     -4.042089e-01     -5.000000e-01     
-5.000000e-01     -3.970053e-01     -5.000000e-01     -5.000000e-01     -2.396465e-01     
-3.335169e-01     -2.789418e-01     -3.086997e-01     -3.285486e-01     -2.597711e-01     
-5.783633e-02     -1.074534e-01     -1.120614e-01     -3.010230e-03     -1.524627e-01     
-2.185713e-01     -2.256248e-01     -2.324369e-01     -2.035081e-01     -1.156731e-01     
-3.392345e-03     -4.929095e-03     -3.372304e-01     -3.085903e-01     -2.324125e-01     
-2.767875e-01     -3.214402e-01     -1.646944e-01     -1.607188e-01     -1.867207e-01     
-8.056237e-03     -3.209209e-01     -4.186062e-01     -4.109369e-01     -3.214590e-01     
-3.631789e-01     -4.183076e-01     -4.120401e-01     -4.127798e-01     -4.016415e-01     
-4.241828e-01     -3.722498e-01     -4.037477e-01     -2.896969e-01     -1.273732e-01     
-1.945857e-01     -1.330497e-01     -3.311771e-01     -3.332027e-01     -3.807663e-01     
-2.137908e-01     -1.080025e-01     -3.607227e-01     -3.408730e-01     -4.298556e-01     
-5.000000e-01     -5.000000e-01     -4.240284e-01     -2.712165e-01     -2.894801e-01     
-4.282821e-01     -4.245095e-01     -2.475493e-01     -1.701404e-01     -9.786223e-02     
-6.353725e-02     5.341083e-04     -1.035602e-02     -9.868880e-02     -6.697607e-02     
-5.915017e-02     -2.943064e-01     -4.120794e-01     -4.173945e-01     -2.223731e-01     
-3.187790e-01     -3.153887e-01     -2.754262e-01     -3.773884e-01     -3.219500e-01     
-3.252928e-01     -1.442318e-01     1.384977e-02     -7.266438e-02     -1.982943e-01     
-1.038295e-02     -2.403147e-02     -9.755535e-02     -1.719767e-01     2.232776e-02     
-3.721965e-02     5.158073e-02     -1.080759e-01     -3.320251e-02     -8.641785e-02     
-2.425458e-01     -2.414552e-01     -3.196433e-01     -3.089671e-01     -3.662413e-01     
-3.212259e-01     -2.902955e-01     -3.232240e-01     -3.176117e-01     -3.271123e-01     
-3.218524e-01     -1.850756e-01     -3.223109e-01     -2.391649e-01     -3.572651e-01     
-2.861248e-01     -3.407985e-01     -3.454984e-01     -2.038090e-01     -1.007283e-01     
2.644615e-03     -2.340197e-01     -2.411671e-01     -6.870312e-02     4.741405e-02     
4.683257e-02     1.687735e-02     -2.734712e-01     -2.045178e-01     -1.516871e-01     
-2.562685e-01     -1.663794e-01     -1.367538e-01     -1.642414e-01     -1.651691e-01     
-2.126662e-01     -2.798202e-01     -2.431931e-01     -1.540425e-01     -1.382190e-01     
-2.046765e-01     -1.889891e-01     2.692346e-02     7.585434e-02     -2.073369e-01     
-1.703304e-01     2.464823e-02     -8.588324e-02     -1.470839e-02     -5.653861e-03     
7.852036e-03     -2.596275e-01     -2.301124e-01     -1.788628e-01     -7.024213e-02     
-1.822619e-01     -1.277071e-01     -9.508555e-02     -2.701045e-01     -2.158492e-02     
-9.010675e-02     -1.181168e-01     -2.303986e-01     -1.737764e-01     -1.016461e-01     
-3.355631e-01     -2.679621e-01     -3.723038e-01     -3.530604e-01     -2.027105e-01     
-1.960583e-01     -1.601817e-01     -5.878848e-02     
-4.722725e-02     
-1.000000e-01     -4.724924e-02     0.000000e+00     5.000000e-01     5.000000e-01     
4.144218e-01     5.000000e-01     5.000000e-01     5.000000e-01     4.167737e-01     
5.000000e-01     4.032489e-01     5.000000e-01     5.000000e-01     4.138702e-01     
5.000000e-01     5.000000e-01     5.081917e-02     5.080336e-02     1.000000e-01     
5.000000e-01     5.000000e-01     4.138731e-01     5.000000e-01     4.300588e-01     
5.000000e-01     5.000000e-01     4.301194e-01     4.000000e-01     3.445218e-01     
3.444106e-01     3.000000e-01     2.468152e-01     2.469178e-01     2.000000e-01     
1.490320e-01     1.489758e-01     5.000000e-01     5.000000e-01     4.034895e-01     
5.341879e-02     9.602862e-02     9.912744e-02     4.844494e-03     1.355396e-01     
1.950294e-01     -2.877674e-02     9.828848e-03     -9.002650e-02     5.496594e-02     
7.028715e-02     1.312398e-01     1.303165e-01     2.557900e-02     5.774721e-02     
3.348193e-01     3.581526e-01     3.257654e-01     2.396957e-01     3.925728e-01     
9.963554e-02     2.806867e-03     1.592121e-01     1.781491e-01     2.353156e-01     
2.937581e-01     2.949947e-01     1.969401e-01     1.953421e-01     -9.431583e-02     
-1.456937e-01     1.749481e-01     3.847235e-01     3.254343e-01     4.129811e-01     
-1.936814e-01     7.441303e-03     2.428277e-01     2.899590e-02     4.687186e-02     
2.759852e-02     8.402114e-02     1.192813e-01     1.365092e-01     1.373134e-01     
1.360649e-01     9.632148e-02     5.362963e-02     9.926986e-02     9.827148e-03     
-2.899072e-02     4.842534e-03     3.272128e-01     3.590610e-01     3.355484e-01     
2.408308e-01     2.901776e-01     2.941536e-01     1.794024e-01     1.613115e-01     
1.787115e-01     2.383139e-01     3.860812e-01     3.275999e-01     5.000000e-01     
-5.564519e-02     1.142486e-02     2.358618e-01     3.008586e-01     3.391143e-01     
-6.285734e-02     7.710532e-03     5.839041e-02     -6.195801e-02     5.000000e-01     
5.000000e-01     4.185878e-01     4.093148e-01     5.000000e-01     5.000000e-01     
5.000000e-01     4.218135e-01     5.000000e-01     5.000000e-01     5.000000e-01     
4.172024e-01     5.000000e-01     5.000000e-01     4.094829e-01     4.136901e-01     
4.110959e-01     4.036275e-01     5.165750e-02     3.317235e-01     -1.286301e-01     
-9.746187e-02     -1.905254e-01     2.706006e-01     4.172066e-01     8.501758e-02     
1.728673e-01     1.557527e-01     4.988613e-02     2.721695e-01     5.000000e-01     
4.157754e-01     -3.724132e-02     -1.228837e-01     2.099598e-01     -9.245495e-02     
9.188521e-02     4.146318e-01     4.058960e-01     4.284827e-01     3.985726e-01     
4.150753e-01     5.000000e-01     -4.259460e-02     -1.428054e-01     -1.061380e-01     
-3.136316e-02     9.417112e-02     2.375941e-01     6.341390e-02     -1.495335e-01     
-9.022320e-02     -1.294905e-01     -4.481126e-02     2.924883e-01     4.127837e-01     
-7.890762e-02     3.313243e-01     2.142534e-01     3.292783e-01     3.900303e-01     
3.450963e-01     5.383750e-02     -4.206277e-02     -2.804394e-02     3.511369e-01     
2.671404e-01     2.013016e-01     8.889247e-02     1.805366e-01     7.511149e-02     
8.222970e-02     4.012171e-01     1.706430e-01     3.064936e-01     3.169228e-01     
6.678495e-02     1.951654e-01     1.727938e-01     2.410548e-01     3.139937e-01     
3.699597e-01     4.333535e-01     2.826959e-01     3.004067e-01     3.518147e-01     
3.344640e-01     3.091460e-01     3.113153e-01     1.251280e-01     2.904519e-01     
1.242502e-01     1.283477e-01     -2.639060e-02     -3.352824e-02     1.341087e-04     
1.478924e-01     3.097256e-01     1.703431e-01     6.557520e-02     2.505627e-01     
3.397126e-01     3.231689e-01     3.604415e-01     8.744332e-02     7.665789e-02     
-1.278330e-01     -2.338076e-01     -2.745400e-02     2.415824e-01     1.473061e-01     
2.669787e-01     3.266710e-01     2.299416e-01     3.061934e-01     2.714692e-01     
3.624963e-01     2.463018e-01     3.849417e-03     4.785591e-02     -3.152298e-02     
7.108794e-02     1.329907e-01     4.869574e-02     1.248303e-01     2.009720e-01     
3.279381e-01     4.327534e-01     -1.155453e-02     3.413638e-02     2.175688e-01     
1.350005e-01     2.219312e-01     1.989159e-01     1.962091e-01     1.770450e-01     
-4.453414e-02     2.134139e-01     2.095514e-01     1.371372e-01     2.149141e-01     
1.017809e-01     6.881271e-03     3.643884e-01     1.847153e-01     2.163687e-01     
1.154614e-01     1.148639e-01     1.139302e-01     2.163492e-01     1.585659e-01     
7.554143e-02     1.657129e-01     1.517605e-01     -1.878917e-02     1.953350e-01     
3.235745e-01     3.235405e-02     8.691461e-02     2.044423e-01     6.437256e-02     
2.633477e-01     5.207872e-02     -2.919534e-02     

0      
0      0      0      0      0      0      0      0      0      0      
0      0      0      0      0      0      0      0      0      0      
0      0      0      0      0      0      0      0      0      0      
0      0      0      0      0      0      0      0      0      0      
0      0      0      0      0      0      0      0      0      0      
0      0      0      0      0      0      0      0      0      0      
0      0      0      0      0      0      0      0      0      0      
0      0      0      0      0      0      0      0      0      0      
0      0      0      0      0      0      0      0      0      0      
0      0      0      0      0      0      0      0      0      0      
0      0      0      0      0      0      0      0      0      0      
0      0      0      0      0      0      0      0      0      0      
0      0      0      0      0      0      0      0      0      0      
0      0      0      0      0      0      0      0      0      0      
0      0      0      0      0      0      0      0      0      0      
0      0      0      0      0      0      0      0      0      0      
0      0      0      0      0      0      0      0      0      0      
0      0      0      0      0      0      0      0      0      0      
0      0      0      0      0      0      0      0      0      0      
0      0      0      0      0      0      0      0      0      0      
0      0      0      0      0      0      0      0      0      0      
0      0      0      0      0      0      0      0      0      0      
0      0      0      0      0      0      0      0      0      0      
0      0      0      0      0      0      0      0      0      0      
0      0      0      0      0      0      0      0      0      0      
0      0      0      0      0      0      0      0      0      0      
0      0      0      0      0      0      0      0      0      0      
0      0      0      0      0      0      0      0      0      0      
0      0      0      0      0      0      0      0      0      0      
0      0      0      0      0      0      0      0      0      0      
0      0      0      0      0      0      0      0      0      0      
0      0      0      0      0      0      0      0      0      0      
0      0      0      0      0      0      0      0      0      0      
0      0      0      0      0      0      0      0      0      0      
0      0      0      0      0      0      0      0      0      0      
0      0      0      0      0      0      0      0      0      0      
0      0      0      0      0      0      0      0      0      0      
0      0      0      0      0      0      0      0      0      0      
0      0      0      0      0      0      0      0      0      0      
0      0      0      0      0      0      0      0      0      0      
0      0      0      0      0      0      0      0      0      0      
0      0      0      0      0      0      0      0      0      0      
0      0      0      0      0      0      0      0      0      0      
0      0      0      0      0      0      0      0      0      0      
0      0      0      0      0      0      0      0      0      0      
0      0      0      0      0      0      0      0      0      0      
0      0      0      0      0      0      0      0      0      0      
0      0      0      0      0      0      0      0      0      0      
0      0      0      0      0      0      0      0      0      0      
0      0      0      0      0      0      0      0      0      0      
0      0      0      0      0      0      0      0      0      0      
0      0      0      0      0      0      0      0      0      0      
0      0      0      0      0      0      0      0      0      0      
0      0      0      0      0      0      0      0      0      0      
0      0      0      0      0      0      0      0      0      0      
0      0      0      0      0      0      0      0      0      0      
0      0      0      0      0      0      0      0      0      0      
0      0      0      0      0      0      0      0      0      0      
0      0      0      0      0      0      0      0      0      0      
0      0      0      0      0      0      0      0      0      0      
0      0      0      0      0      0      0      0      0      0      
0      0      0      0      0      0      0      0      0      0      
0      0      0      0      0      0      0      0      0      0      
0      0      0      0      0      0      0      0      0      0      
0      0      0      0      0      0      0      0      0      0      
0      0      0      0      0      0      0      0      0      0      
0      0      0      0      0      0      0      0      0      0      
0      0      0      0      0      0      0      0      0      0      
0      0      0      0      0      0      0      0      0      0      
0      0      0      0      0      0      0      0      0      0      
0      0      0      0      0      0      0      0      0      0      
0      0      0      0      0      0      0      0      0      0      
0      0      0      0      0      0      0      0      0      0      
0      0      0      0      0      0      0      0      0      0      
0      0      0      0      0      0      0      0      0      0      
0      0      0      0      0      0      0      0      0      0      
0      0      0      0      0      0      0      0      0      0      
0      0      0      0      0      0      0      0      0      0      
0      0      0      0      0      0      0      0      0      0      
0      0      0      0      0      0      0      0      0      0      
0      0      0      0      0      0      0      0      0      0      
0      0      0      0      0      0      0      0      0      0      
0      0      0      0      0      0      0      0      0      0      
0      0      0      0      0      0      0      0      0      0      
0      0      0      0      0      0      0      0      0      0      
0      0      0      0      0      0      0      0      0      0      
0      0      0      0      0      0      0      0      0      0      
0      0      0      0      0      0      0      0      0      0      
0      0      0      0      0      0      0      0      0      0      
0      0      0      0      0      0      0      0      0      0      
0      0      0      0      0      0      0      0      0      0      
0      0      0      0      0      0      0      0      0      0      
0      0      0      0      0      0      0      0      0      0      
0      0      1      1      1      1      1      1      1      1      
1      1      1      1      1      1      1      1      1      1      
1      1      1      1      1      1      1      1      1      1      
1      1      1      1      1      1      1      1      1      1      
1      1      1      1      1      1      1      1      1      1      
1      1      1      1      1      1      1      1      1      1      
1      1      1      1      1      1      1      1      1      1      
1      1      1      1      1      1      1      1      1      1      
1      1      1      1      1      1      1      1      1      1      
1      1      1      1      1      1      1      1      1      1      
1      1      1      1      1      1      1      1      1      1      
1      1      1      1      1      1      1      1      1      1      
1      1      1      1      1      1      1      1      1      1      
1      1      1      1      1      1      1      1      1      1      
1      1      1      1      1      1      1      1      1      1      
1      1      1      1      1      1      1      1      1      1      
1      1      1      1      1      1      1      1      1      1      
1      1      1      1      1      1      1      1      1      1      
1      1      1      1      1      1      1      1      1      1      
1      1      1      1      1      1      1      1      1      1      
1      1      1      1      1      1      1      1      1      1      
1      1      1      1      1      1      1      1      1      1      
1      1      1      1      1      1      1      1      1      1      
1      1      1      1      1      1      1      1      1      1      
1      1      1      1      1      1      1      1      1      1      
1      1      1      1      1      1      1      1      1      1      
1      1      1      1      1      1      1      1      1      1      
1      1      1      1      1      1      1      1      1      1      
1      1      1      1      1      1      1      1      1      1      
1      1      1      1      1      1      1      1      1      1      
1      1      1      1      1      1      1      1      1      1      
1      1      1      1      1      1      1      1      1      1      
1      1      1      1      1      1      1      1      1      1      
1      1      1      1      1      1      1      1      1      1      
1      1      1      1      1      1      1      1      1      1      
1      1      1      1      1      1      1      1      1      1      
1      1      1      1      1      1      1      1      1      1      
1      1      1      1      1      1      1      1      1      1      
1      1      1      1      1      1      1      1      1      1      
1      1      1      1      1      1      1      1      1      1      
1      1      1      1      1      1      1      1      1      1      
1      1      1      1      1      1      

1      2      3      71      
3      2      1      4      
1      3      4      63      
5      6      7      17      
7      6      5      8      
8      7      6      154      
12      13      14      155      
14      13      12      15      
15      14      13      61      
16      17      7      147      
7      17      16      5      
5      17      16      18      
7      17      6      147      
18      17      16      104      
4      19      20      63      
20      19      4      21      
21      20      19      62      
10      22      11      9      
11      22      10      18      
18      11      22      104      
9      22      11      153      
23      24      25      140      
25      24      23      12      
12      25      24      155      
26      27      28      29      
28      27      26      15      
15      26      28      61      
29      27      28      39      
26      29      28      61      
26      27      29      30      
26      30      29      61      
31      32      33      68      
33      32      31      30      
31      30      32      61      
34      35      33      68      
33      35      34      36      
34      36      35      69      
37      36      38      69      
38      36      37      21      
37      38      21      62      
28      29      39      40      
40      41      8      154      
8      41      40      39      
40      39      41      29      
29      41      40      61      
28      29      40      61      
42      43      44      46      
44      43      42      45      
45      44      43      134      
45      43      42      49      
46      43      47      65      
47      43      46      44      
44      47      43      69      
42      43      46      141      
48      49      45      42      
45      49      48      50      
50      45      49      159      
50      49      48      137      
48      49      42      141      
42      49      43      141      
45      43      49      134      
54      53      52      142      
52      53      54      51      
54      52      51      55      
54      52      55      56      
56      52      55      78      
54      52      56      141      
57      58      59      60      
59      58      57      24      
24      59      58      140      
24      58      57      155      
60      58      59      139      
57      58      60      79      
32      61      13      135      
13      61      32      26      
26      13      61      15      
26      61      32      30      
31      61      29      30      
29      61      31      41      
41      61      31      173      
28      61      40      14      
40      61      41      154      
14      28      61      15      
14      61      40      119      
14      13      61      155      
31      61      32      68      
44      62      38      69      
38      62      44      20      
20      38      62      21      
20      62      44      63      
38      62      37      69      
21      37      62      19      
19      62      20      63      
37      62      19      90      
45      63      44      134      
44      63      45      20      
20      63      45      1      
44      63      62      134      
1      63      45      50      
20      63      1      4      
19      62      63      144      
19      63      4      3      
3      63      1      71      
19      63      3      169      
50      1      63      71      
50      63      45      159      
64      65      66      73      
66      65      64      60      
60      65      64      46      
60      65      47      79      
47      65      60      46      
43      65      46      141      
47      65      43      79      
46      65      64      141      
67      68      32      135      
32      68      67      34      
34      32      68      33      
34      68      67      69      
32      68      61      135      
31      61      68      173      
31      68      33      35      
31      68      35      173      
34      35      68      69      
34      69      67      47      
47      34      69      38      
47      69      67      79      
67      69      68      79      
38      34      69      36      
38      69      47      44      
68      69      35      164      
70      69      37      185      
37      69      70      35      
35      37      69      36      
35      69      70      164      
37      69      62      185      
44      62      69      43      
1      71      50      72      
72      1      71      2      
72      71      50      160      
50      71      63      159      
3      63      71      169      
64      73      54      141      
54      73      64      66      
65      73      64      141      
76      74      59      140      
59      74      76      75      
52      78      56      141      
68      79      69      164      
67      79      68      135      
69      79      47      43      
67      47      79      60      
43      79      65      207      
43      69      79      143      
60      79      67      57      
57      79      67      135      
60      79      58      139      
57      58      79      135      
80      81      82      148      
82      81      80      83      
83      82      81      152      