title = " tecplot file for process Mesh " 
variables = "x",  "y", "z", "cell_type" 
zone N = 295 E = 1393 DATAPACKING = BLOCK,  VARLOCATION = ([4]=CELLCENTERED), ZONETYPE=FETETRAHEDRON 
4.291666e-01     
4.284215e-01     4.000000e-01     3.405134e-01     3.360099e-01     3.000000e-01     
5.000000e-01     4.158415e-01     5.000000e-01     5.000000e-01     2.393170e-01     
2.315953e-01     2.000000e-01     5.000000e-01     5.000000e-01     4.156594e-01     
5.000000e-01     4.124834e-01     5.000000e-01     5.000000e-01     5.000000e-01     
3.999159e-01     5.000000e-01     5.000000e-01     4.157591e-01     5.000000e-01     
5.000000e-01     5.000000e-01     5.000000e-01     5.000000e-01     4.167259e-01     
5.000000e-01     0.000000e+00     5.178851e-02     4.830228e-02     1.000000e-01     
5.000000e-01     4.324995e-01     5.000000e-01     5.000000e-01     4.159608e-01     
5.000000e-01     4.315081e-01     1.377046e-01     1.321828e-01     5.000000e-01     
5.000000e-01     4.189437e-01     5.000000e-01     4.099428e-01     5.000000e-01     
5.000000e-01     3.371435e-01     4.245291e-01     5.000000e-01     5.000000e-01     
3.400973e-01     4.064314e-01     5.000000e-01     5.000000e-01     4.045636e-01     
5.000000e-01     5.000000e-01     4.108373e-01     5.000000e-01     5.000000e-01     
4.175237e-01     4.180293e-01     3.274481e-01     4.096621e-01     4.172429e-01     
5.000000e-01     5.000000e-01     4.144159e-01     4.008310e-01     4.052975e-01     
5.000000e-01     7.535529e-02     4.558078e-02     5.410661e-02     1.616572e-01     
2.552965e-01     2.161830e-01     3.209921e-02     1.268115e-01     7.527391e-02     
1.391732e-01     1.659874e-01     2.404959e-01     2.159937e-01     2.200120e-01     
2.672095e-01     3.263200e-01     -3.152366e-02     -2.498834e-02     -7.554057e-02     
8.980139e-02     9.813176e-02     7.594516e-02     -3.011868e-02     -7.142103e-02     
-1.338303e-02     -1.430882e-02     -1.223302e-01     1.998937e-01     3.241324e-01     
6.042708e-02     1.091621e-01     1.120897e-01     1.549696e-01     2.303081e-01     
2.816513e-01     2.849217e-01     3.297242e-01     1.139965e-02     7.124845e-02     
1.312488e-01     1.741537e-01     2.362427e-01     2.318402e-01     2.995110e-01     
3.251468e-01     4.346364e-01     4.128872e-01     4.183512e-01     3.342662e-01     
4.047434e-01     4.209833e-01     4.199403e-01     4.108065e-01     4.224014e-01     
5.000000e-01     4.114264e-01     3.122917e-01     1.579027e-01     1.753817e-01     
-1.378000e-01     -9.253668e-03     -6.432137e-02     -3.295755e-02     3.441565e-01     
1.196113e-01     -3.003020e-02     3.033129e-01     1.236821e-01     2.294465e-01     
3.478584e-01     1.734785e-01     2.088979e-01     -4.205179e-02     3.129668e-01     
3.854274e-01     3.584103e-01     3.483688e-01     -7.644417e-02     1.294970e-01     
2.540741e-02     4.672397e-02     3.537607e-01     4.351436e-02     -7.691147e-04     
1.766192e-02     2.520400e-01     3.027383e-01     2.896198e-01     2.753953e-01     
2.094841e-01     3.102990e-01     3.634810e-01     2.747904e-01     3.415252e-01     
2.859465e-01     2.637406e-01     2.397751e-01     1.639466e-01     -1.001541e-01     
-1.212506e-01     3.186261e-02     1.586154e-01     4.733284e-02     1.627360e-01     
1.596909e-01     3.277954e-01     2.322446e-01     2.352976e-01     3.198512e-01     
3.309286e-01     2.188093e-01     3.244468e-01     2.776291e-01     2.262415e-01     
1.694549e-01     6.426166e-02     1.064675e-01     3.918877e-02     1.316131e-01     
2.272211e-01     1.039903e-01     1.569956e-01     2.034474e-01     2.046196e-01     
-6.720908e-03     1.429798e-02     -8.326735e-02     4.069688e-02     -3.237491e-02     
-1.325225e-01     -3.954632e-02     5.670359e-02     7.720621e-02     1.989850e-01     
2.772326e-01     2.942512e-01     3.278424e-01     2.873769e-01     1.294959e-01     
5.146898e-02     2.813883e-02     3.014563e-01     2.905901e-02     -1.957481e-02     
1.326207e-01     2.004760e-01     1.573082e-01     -1.673894e-01     -1.964516e-01     
4.498285e-02     1.450589e-01     1.281992e-01     3.356618e-02     2.407601e-01     
1.954645e-01     1.414686e-01     1.277205e-01     4.927584e-02     2.133663e-02     
9.976539e-02     2.167192e-01     1.626396e-01     -8.962029e-02     -1.630906e-01     
-9.303104e-02     1.222356e-01     1.587556e-02     7.949834e-02     -6.652962e-02     
-4.713288e-02     2.202300e-01     1.353615e-01     -7.100724e-02     2.597917e-01     
-3.165824e-02     9.402633e-03     6.713383e-02     4.206163e-02     9.364570e-02     
9.417713e-02     9.027723e-02     -5.846766e-02     1.201253e-01     2.018539e-01     
1.152956e-01     -1.007032e-01     -9.934045e-02     -1.198214e-01     -1.803283e-01     
-1.980450e-02     -3.809240e-02     -9.481050e-02     4.099856e-02     -6.291875e-02     
-8.680247e-03     -4.579973e-02     -2.441756e-02     -3.236617e-02     -1.450965e-01     
-2.392632e-01     -1.983751e-01     1.961222e-01     6.810363e-02     1.517068e-02     
-1.514510e-01     -1.471830e-02     -4.193098e-03     -3.653955e-02     1.930056e-01     
4.433114e-01     2.809662e-01     2.323347e-01     1.290798e-01     2.026841e-01     
5.290087e-02     -1.995006e-02     3.014280e-01     1.918974e-01     
5.000000e-01     
4.295968e-01     5.000000e-01     4.165746e-01     5.000000e-01     5.000000e-01     
5.000000e-01     5.000000e-01     4.002185e-01     5.000000e-01     4.133445e-01     
5.000000e-01     5.000000e-01     1.385241e-01     2.000000e-01     1.332982e-01     
1.000000e-01     2.327661e-01     2.398472e-01     3.000000e-01     3.408169e-01     
3.370237e-01     4.000000e-01     0.000000e+00     -3.538671e-02     -3.199024e-02     
-1.000000e-01     5.250692e-02     5.000000e-01     4.163841e-01     5.000000e-01     
5.000000e-01     5.000000e-01     4.312317e-01     5.000000e-01     5.000000e-01     
4.321533e-01     5.000000e-01     5.000000e-01     4.162748e-01     5.000000e-01     
5.000000e-01     4.921320e-02     4.153532e-01     5.000000e-01     4.285649e-01     
5.000000e-01     3.898668e-01     3.302813e-01     3.563551e-01     4.128642e-01     
3.259199e-01     4.820785e-02     2.544020e-02     5.580392e-02     -6.244155e-02     
5.000000e-01     3.957228e-01     3.387404e-01     2.310521e-01     2.822865e-01     
2.855261e-01     6.001601e-02     1.095501e-01     1.133817e-01     1.552525e-01     
2.887301e-01     3.852755e-01     5.000000e-01     -7.576147e-02     1.849237e-01     
1.763997e-01     2.371940e-01     2.078329e-01     1.151951e-01     2.708136e-01     
2.365064e-01     4.055642e-01     5.000000e-01     3.369475e-01     5.000000e-01     
5.000000e-01     4.081786e-01     5.000000e-01     4.221875e-01     5.000000e-01     
5.000000e-01     5.000000e-01     5.000000e-01     4.087856e-01     5.000000e-01     
4.011284e-01     5.000000e-01     5.000000e-01     4.102369e-01     5.000000e-01     
4.123743e-01     5.000000e-01     4.048878e-01     4.102142e-01     5.000000e-01     
4.055197e-01     5.000000e-01     5.000000e-01     4.018832e-01     5.000000e-01     
1.440632e-01     1.782696e-01     2.381181e-01     1.526275e-01     2.245509e-01     
2.701496e-01     3.282316e-01     2.576664e-01     1.096215e-01     3.541531e-02     
5.237629e-02     1.032071e-01     1.046175e-01     -8.104138e-03     1.057775e-01     
1.645071e-01     4.316022e-01     5.000000e-01     4.175448e-01     4.051028e-01     
1.429776e-01     2.615752e-02     1.920898e-01     2.101569e-01     3.466218e-01     
3.268247e-01     3.180684e-01     3.957599e-01     4.179037e-01     3.244476e-01     
4.020358e-01     3.553289e-01     3.227309e-01     4.147698e-01     4.246380e-01     
3.942137e-01     4.114720e-01     4.068890e-01     2.959851e-01     3.467533e-01     
2.375299e-01     -7.621675e-03     1.984652e-01     -1.038295e-02     -8.887055e-03     
1.033214e-01     3.655507e-01     3.216224e-01     3.295829e-01     3.112636e-01     
3.234153e-01     4.019531e-01     2.280819e-01     2.859603e-01     2.319927e-01     
2.044256e-01     4.633019e-02     1.367728e-01     1.197060e-01     3.628053e-01     
2.932253e-01     2.938676e-01     2.737711e-01     2.699378e-01     3.128120e-01     
3.517081e-01     2.749316e-01     4.138598e-01     3.293132e-01     3.514045e-01     
4.136295e-01     5.158073e-02     1.508936e-01     3.076187e-01     3.275821e-01     
3.482882e-01     -7.906922e-04     -3.458726e-02     5.027442e-02     2.125020e-01     
3.782396e-02     -3.705678e-02     3.239175e-01     3.352205e-01     2.874042e-01     
1.916033e-01     2.169469e-01     2.822351e-01     -3.721965e-02     5.316022e-02     
5.876071e-02     1.000127e-01     2.345615e-01     9.500666e-02     1.458495e-01     
2.617462e-01     2.937873e-01     2.713148e-01     3.578556e-01     2.839712e-01     
2.340524e-01     1.636962e-01     1.960636e-01     3.220858e-01     2.461435e-01     
2.023232e-01     1.472880e-01     1.796207e-01     7.962167e-02     2.548939e-02     
-8.234295e-02     2.280225e-02     7.716075e-02     -4.029087e-02     -1.540425e-01     
4.712919e-03     -2.639549e-02     -2.976567e-03     3.029457e-01     2.289514e-01     
2.468048e-01     -3.100215e-02     1.128847e-01     1.805921e-01     4.260397e-03     
-7.660485e-02     1.021592e-01     1.688261e-01     1.473833e-01     1.266201e-01     
6.200321e-02     1.858947e-01     2.253253e-01     2.368886e-01     1.624449e-01     
3.464819e-01     1.895138e-01     1.277716e-01     1.227642e-01     -5.878848e-02     
5.267871e-02     1.622257e-01     2.612971e-01     -9.508555e-02     -5.298887e-02     
9.773667e-02     4.377349e-02     1.077926e-01     2.464823e-02     -8.588324e-02     
-1.080759e-01     -2.192406e-02     8.163746e-02     2.680161e-01     2.480827e-01     
1.478539e-01     2.619822e-02     -2.124176e-02     8.944716e-02     9.721807e-02     
2.079427e-01     1.641181e-01     1.319178e-01     -1.277071e-01     -3.786000e-02     
-9.220390e-02     -1.308397e-01     -2.158492e-02     7.606658e-02     -1.470839e-02     
2.237190e-01     1.916719e-01     2.600626e-01     3.253004e-01     1.115827e-01     
-9.010675e-02     1.290992e-01     4.302292e-01     5.000000e-01     6.330788e-02     
2.766187e-01     1.977264e-01     1.298456e-01     2.690992e-01     -3.789225e-02     
1.878158e-01     2.228694e-01     1.379059e-01     -1.007829e-01     
4.279380e-01     
5.000000e-01     5.000000e-01     5.000000e-01     3.986949e-01     5.000000e-01     
3.000000e-01     3.395489e-01     3.372980e-01     4.000000e-01     5.000000e-01     
4.114011e-01     5.000000e-01     4.164962e-01     5.000000e-01     5.000000e-01     
5.000000e-01     5.000000e-01     4.139005e-01     5.000000e-01     4.168381e-01     
5.000000e-01     5.000000e-01     5.000000e-01     5.000000e-01     4.168623e-01     
5.000000e-01     4.326332e-01     0.000000e+00     -3.482816e-02     -3.401332e-02     
-1.000000e-01     5.000000e-01     5.000000e-01     4.321877e-01     5.000000e-01     
4.966861e-02     5.093201e-02     1.000000e-01     1.338316e-01     1.366332e-01     
2.000000e-01     5.000000e-01     5.000000e-01     4.155384e-01     4.297174e-01     
5.000000e-01     3.946178e-01     2.582393e-01     2.188789e-01     2.331329e-01     
1.652643e-01     5.000000e-01     3.965849e-01     3.402593e-01     3.277753e-01     
5.170053e-02     7.764854e-02     4.944539e-02     2.254400e-01     2.708449e-01     
3.288553e-01     1.450579e-01     1.794774e-01     2.403316e-01     1.530427e-01     
3.865313e-01     -7.909091e-02     -6.652191e-02     3.859192e-01     3.854066e-01     
3.258233e-01     1.054914e-01     1.613247e-01     3.021381e-01     4.991876e-02     
-5.180564e-03     3.955337e-01     3.388750e-01     5.000000e-01     3.233363e-01     
3.268755e-01     3.538710e-01     1.434525e-01     7.562970e-02     4.593275e-02     
1.362034e-01     4.475299e-02     1.059542e-01     4.831717e-02     2.243635e-01     
2.778618e-01     2.823463e-01     5.379623e-02     1.147421e-01     1.469775e-01     
1.715661e-01     2.350423e-01     -1.726771e-02     -6.092249e-03     3.294852e-01     
3.027416e-01     2.398647e-01     2.418487e-01     1.555070e-01     1.724774e-01     
5.000000e-01     4.123820e-01     5.000000e-01     5.000000e-01     5.000000e-01     
4.043188e-01     5.000000e-01     5.000000e-01     4.051339e-01     4.149221e-01     
5.000000e-01     4.158851e-01     5.000000e-01     5.000000e-01     4.045382e-01     
5.000000e-01     2.882578e-01     2.381480e-01     1.595807e-01     -7.463498e-03     
8.376815e-02     3.053117e-01     2.530347e-01     -2.246080e-02     2.956004e-03     
-6.729391e-02     1.320240e-01     3.990102e-01     4.164081e-01     5.000000e-01     
2.926683e-01     4.210254e-01     5.000000e-01     5.000000e-01     2.270349e-01     
2.854899e-01     2.095015e-01     1.163367e-01     3.957879e-01     4.251274e-01     
3.384389e-01     4.051746e-01     4.035978e-01     3.699597e-01     3.819854e-01     
3.875638e-01     3.114284e-01     4.301783e-01     3.338963e-01     1.209283e-01     
5.209260e-02     2.434862e-01     4.233321e-01     4.295877e-01     5.000000e-01     
4.107849e-01     3.777487e-02     9.029134e-03     1.368564e-01     1.934246e-01     
3.045771e-01     2.718335e-01     1.924274e-01     1.870548e-01     -4.478111e-02     
4.700822e-02     4.993615e-03     -4.189146e-02     -1.825588e-02     1.141737e-01     
1.834156e-01     3.091460e-01     3.171279e-01     3.100022e-01     2.181834e-01     
3.420747e-01     2.841447e-01     3.289816e-01     3.809741e-01     8.662246e-02     
1.615049e-01     1.109510e-01     1.327462e-01     3.436354e-01     9.904607e-02     
1.639470e-01     8.611439e-02     3.643805e-02     3.344640e-01     3.337011e-01     
2.936702e-01     2.353010e-01     3.429802e-01     1.956325e-01     6.589751e-02     
1.015855e-01     1.778511e-01     6.506231e-02     1.284173e-01     2.614740e-01     
3.300345e-01     3.559425e-01     3.061275e-01     2.300920e-01     2.288588e-01     
3.591781e-01     3.013929e-01     2.103820e-01     3.345710e-01     -8.765528e-02     
-5.766458e-02     -5.066427e-02     2.405767e-01     5.922692e-02     3.413638e-02     
1.760556e-01     -2.407255e-02     5.281515e-02     2.095232e-01     2.606227e-01     
-3.452024e-02     2.942489e-01     1.495434e-01     1.915037e-01     1.972103e-01     
2.294396e-01     -1.128492e-02     -1.193353e-01     -4.746935e-02     5.222241e-02     
8.092342e-02     -3.342174e-02     7.976097e-02     1.690870e-01     2.023573e-01     
2.370597e-01     2.424339e-01     2.628954e-01     3.501652e-01     -2.919534e-02     
2.068263e-02     2.527781e-01     1.829845e-01     1.139302e-01     2.611366e-01     
-7.657097e-02     9.414728e-02     -1.710265e-01     2.134139e-01     2.095514e-01     
3.113153e-01     -3.802190e-03     3.158211e-01     -3.925904e-02     -1.201743e-01     
6.105599e-02     -5.257005e-02     5.291877e-02     9.974062e-02     1.555004e-02     
2.382818e-02     1.235447e-01     2.148884e-02     1.148639e-01     -1.097965e-01     
-1.422391e-01     -7.355145e-02     1.585659e-01     1.708620e-01     1.371372e-01     
1.890903e-01     1.150726e-01     -2.894500e-02     -1.898935e-02     1.252687e-01     
7.554143e-02     -1.549413e-01     3.827682e-01     4.171923e-01     1.082801e-01     
1.924084e-01     4.394627e-01     3.662662e-01     2.638339e-01     2.758650e-01     
-1.133932e-01     1.602547e-01     3.700488e-01     3.206679e-01     

0      
0      0      0      0      0      0      0      0      0      0      
0      0      0      0      0      0      0      0      0      0      
0      0      0      0      0      0      0      0      0      0      
0      0      0      0      0      0      0      0      0      0      
0      0      0      0      0      0      0      0      0      0      
0      0      0      0      0      0      0      0      0      0      
0      0      0      0      0      0      0      0      0      0      
0      0      0      0      0      0      0      0      0      0      
0      0      0      0      0      0      0      0      0      0      
0      0      0      0      0      0      0      0      0      0      
0      0      0      0      0      0      0      0      0      0      
0      0      0      0      0      0      0      0      0      0      
0      0      0      0      0      0      0      0      0      0      
0      0      0      0      0      0      0      0      0      0      
0      0      0      0      0      0      0      0      0      0      
0      0      0      0      0      0      0      0      0      0      
0      0      0      0      0      0      0      0      0      0      
0      0      0      0      0      0      0      0      0      0      
0      0      0      0      0      0      0      0      0      0      
0      0      0      0      0      0      0      0      0      0      
0      0      0      0      0      0      0      0      0      0      
0      0      0      0      0      0      0      0      0      0      
0      0      0      0      0      0      0      0      0      0      
0      0      0      0      0      0      0      0      0      0      
0      0      0      0      0      0      0      0      0      0      
0      0      0      0      0      0      0      0      0      0      
0      0      0      0      0      0      0      0      0      0      
0      0      0      0      0      0      0      0      0      0      
0      0      0      0      0      0      0      0      0      0      
0      0      0      0      0      0      0      0      0      0      
0      0      0      0      0      0      0      0      0      0      
0      0      0      0      0      0      0      0      0      0      
0      0      0      0      0      0      0      0      0      0      
0      0      0      0      0      0      0      0      0      0      
0      0      0      0      0      0      0      0      0      0      
0      0      0      0      0      0      0      0      0      0      
0      0      0      0      0      0      0      0      0      0      
0      0      0      0      0      0      0      0      0      0      
0      0      0      0      0      0      0      0      0      0      
0      0      0      0      0      0      0      0      0      0      
0      0      0      0      0      0      0      0      0      0      
0      0      0      0      0      0      0      0      0      0      
0      0      0      0      0      0      0      0      0      0      
0      0      0      0      0      0      0      0      0      0      
0      0      0      0      0      0      0      0      0      0      
0      0      0      0      0      0      0      0      0      0      
0      0      0      0      0      0      0      0      0      0      
0      0      0      0      0      0      0      0      0      0      
0      0      0      0      0      0      0      0      0      0      
0      0      0      0      0      0      0      0      0      0      
0      0      0      0      0      0      0      0      0      0      
0      0      0      0      0      0      0      0      0      0      
0      0      0      0      0      0      0      0      0      0      
0      0      0      0      0      0      0      0      0      0      
0      0      0      0      0      0      0      0      0      0      
0      0      0      0      0      0      0      0      0      0      
0      0      0      0      0      0      0      0      0      0      
0      0      0      0      0      0      0      0      0      0      
0      0      0      0      0      0      0      0      0      0      
0      0      0      0      0      0      0      0      0      0      
0      0      0      0      0      0      0      0      0      0      
0      0      0      0      0      0      0      0      0      0      
0      0      0      0      0      0      0      0      0      0      
0      0      0      0      0      0      0      0      0      0      
0      0      0      0      0      0      0      0      0      0      
0      0      0      0      0      0      0      0      0      0      
0      0      0      0      0      0      0      0      0      0      
0      0      0      0      0      0      0      0      0      0      
0      0      0      0      0      0      0      0      0      0      
0      0      0      0      0      0      0      0      0      0      
0      0      0      0      0      0      0      0      0      0      
0      0      0      0      0      0      0      0      0      0      
0      0      0      0      0      0      0      0      0      0      
0      0      0      0      0      0      0      0      0      0      
0      0      0      0      0      0      0      0      0      0      
0      0      0      0      0      0      0      0      0      0      
0      0      0      0      0      0      0      0      0      0      
0      0      0      0      0      0      0      0      0      0      
0      0      0      0      0      0      0      0      0      0      
0      0      0      0      0      0      0      0      0      0      
0      0      0      0      0      0      0      0      0      0      
0      0      0      0      0      0      0      0      0      0      
0      0      0      0      0      0      0      0      0      0      
0      0      0      0      0      0      0      0      0      0      
0      0      0      0      0      0      0      0      0      0      
0      0      0      0      0      0      0      0      0      0      
0      0      0      0      0      0      0      0      0      0      
0      0      0      0      0      0      0      0      0      0      
0      0      0      0      0      0      0      0      0      0      
0      0      0      0      0      0      0      0      0      0      
0      0      0      0      0      0      0      0      0      0      
0      0      0      0      0      0      0      0      0      0      
0      0      0      0      0      0      0      0      0      0      
0      0      1      1      1      1      1      1      1      1      
1      1      1      1      1      1      1      1      1      1      
1      1      1      1      1      1      1      1      1      1      
1      1      1      1      1      1      1      1      1      1      
1      1      1      1      1      1      1      1      1      1      
1      1      1      1      1      1      1      1      1      1      
1      1      1      1      1      1      1      1      1      1      
1      1      1      1      1      1      1      1      1      1      
1      1      1      1      1      1      1      1      1      1      
1      1      1      1      1      1      1      1      1      1      
1      1      1      1      1      1      1      1      1      1      
1      1      1      1      1      1      1      1      1      1      
1      1      1      1      1      1      1      1      1      1      
1      1      1      1      1      1      1      1      1      1      
1      1      1      1      1      1      1      1      1      1      
1      1      1      1      1      1      1      1      1      1      
1      1      1      1      1      1      1      1      1      1      
1      1      1      1      1      1      1      1      1      1      
1      1      1      1      1      1      1      1      1      1      
1      1      1      1      1      1      1      1      1      1      
1      1      1      1      1      1      1      1      1      1      
1      1      1      1      1      1      1      1      1      1      
1      1      1      1      1      1      1      1      1      1      
1      1      1      1      1      1      1      1      1      1      
1      1      1      1      1      1      1      1      1      1      
1      1      1      1      1      1      1      1      1      1      
1      1      1      1      1      1      1      1      1      1      
1      1      1      1      1      1      1      1      1      1      
1      1      1      1      1      1      1      1      1      1      
1      1      1      1      1      1      1      1      1      1      
1      1      1      1      1      1      1      1      1      1      
1      1      1      1      1      1      1      1      1      1      
1      1      1      1      1      1      1      1      1      1      
1      1      1      1      1      1      1      1      1      1      
1      1      1      1      1      1      1      1      1      1      
1      1      1      1      1      1      1      1      1      1      
1      1      1      1      1      1      1      1      1      1      
1      1      1      1      1      1      1      1      1      1      
1      1      1      1      1      1      1      1      1      1      
1      1      1      1      1      1      1      1      1      1      
1      1      1      1      1      1      1      1      1      1      
1      1      1      1      1      1      1      1      1      1      
1      1      1      1      1      1      1      1      1      1      
1      1      1      1      1      1      1      1      1      1      
1      1      1      1      1      1      1      1      1      1      
1      1      1      1      1      1      1      1      1      1      
1      1      

1      2      3      47      
3      2      1      4      
1      4      2      48      
1      3      4      5      
4      1      5      48      
4      5      3      6      
4      5      6      134      
7      8      9      123      
9      8      7      10      
10      9      8      48      
11      6      12      134      
12      6      11      13      
11      12      13      135      
14      15      16      71      
16      15      14      17      
17      14      16      28      
18      19      20      67      
20      19      18      15      
18      15      19      71      
21      22      20      67      
20      22      21      23      
21      23      22      48      
24      25      26      54      
26      25      24      27      
27      26      25      70      
16      28      14      152      
17      28      16      43      
29      30      31      37      
31      30      29      32      
32      31      30      68      
33      34      35      284      
35      34      33      36      
36      35      34      45      
29      37      31      38      
38      29      37      39      
38      37      31      58      
31      37      30      131      
38      39      37      40      
38      40      37      58      
38      39      40      41      
40      41      39      42      
38      41      40      58      
42      40      41      125      
43      17      28      24      
28      43      24      54      
16      43      28      152      
44      13      45      135      
45      13      44      36      
44      45      36      34      
34      45      35      78      
44      45      34      78      
2      46      47      1      
47      46      2      23      
2      23      46      48      
46      47      1      10      
2      46      1      48      
46      10      1      48      
22      48      4      154      
4      48      22      2      
2      48      22      23      
5      48      1      8      
4      48      5      134      
9      48      21      67      
21      48      9      46      
46      21      48      23      
46      48      9      10      
5      48      8      153      
1      8      48      10      
8      48      9      123      
21      48      22      67      
49      50      51      123      
51      50      49      52      
52      51      50      125      
52      50      49      287      
53      54      43      152      
43      54      53      25      
25      43      54      24      
26      24      54      28      
26      54      25      70      
28      54      26      55      
43      54      28      152      
55      28      54      152      
55      54      26      56      
55      54      56      128      
26      56      54      70      
57      58      38      31      
38      58      57      41      
41      58      57      144      
40      58      41      125      
37      58      40      59      
31      58      37      131      
59      58      40      133      
37      58      59      131      
60      61      62      129      
62      61      60      49      
49      62      61      153      
49      61      60      287      
66      65      64      129      
64      65      66      63      
66      64      63      127      
9      67      62      153      
62      67      9      21      
21      62      67      19      
48      67      9      153      
62      67      19      71      
21      19      67      20      
22      67      48      154      
20      67      22      18      
18      67      22      154      
18      19      67      71      
30      68      31      131      
56      54      70      128      
18      71      67      159      
72      71      14      75      
14      71      72      19      
19      14      71      15      
19      71      72      62      
62      71      72      129      
62      67      71      61      
67      71      61      147      
62      61      71      129      
62      67      61      153      
18      15      71      16      
16      71      18      159      
14      71      16      152      
73      74      66      127      
66      74      73      60      
60      66      74      129      
60      74      73      287      
72      55      75      14      
75      55      72      65      
72      75      65      129      
14      55      75      152      
14      75      71      152      
72      71      75      129      
73      76      59      133      
59      76      73      77      
77      59      76      131      