title = " tecplot file for process Mesh " 
variables = "x",  "y", "z", "cell_type" 
zone N = 264 E = 1297 DATAPACKING = BLOCK,  VARLOCATION = ([4]=CELLCENTERED), ZONETYPE=FETETRAHEDRON 
-3.404604e-01     
-4.000000e-01     -3.381638e-01     -3.000000e-01     -4.175553e-01     -5.000000e-01     
-5.000000e-01     -5.000000e-01     -2.373131e-01     -2.342654e-01     -2.000000e-01     
-5.000000e-01     -4.000277e-01     -5.000000e-01     -5.000000e-01     -4.174345e-01     
-5.000000e-01     -5.000000e-01     -5.000000e-01     -5.000000e-01     -5.000000e-01     
-4.193405e-01     -5.000000e-01     -5.000000e-01     5.162404e-02     1.000000e-01     
4.814886e-02     0.000000e+00     1.320931e-01     1.373692e-01     2.000000e-01     
-1.373099e-01     -1.336076e-01     -1.000000e-01     -4.301340e-01     -5.000000e-01     
-5.000000e-01     -4.133186e-01     -5.000000e-01     -5.000000e-01     -5.000000e-01     
-4.172115e-01     -4.139072e-01     -5.000000e-01     -5.000000e-01     -4.286001e-01     
-4.310226e-01     -5.000000e-01     -4.153430e-01     -3.690178e-02     -3.299005e-02     
-2.280614e-01     -2.218774e-01     -2.606534e-01     -1.707134e-01     -3.952441e-01     
-1.578482e-01     -1.840360e-01     -1.544154e-01     -2.398445e-01     5.350412e-02     
2.404603e-02     4.542300e-02     -3.276804e-01     -3.586965e-01     -3.870824e-01     
-3.299054e-01     1.821804e-02     -3.011868e-02     -3.152366e-02     -7.705043e-02     
7.527391e-02     -2.219904e-03     1.069165e-01     1.102617e-01     5.725045e-02     
-1.126532e-01     -1.661876e-01     -2.973002e-01     -3.243758e-01     -3.838672e-01     
-5.000000e-01     -7.702763e-02     -6.448521e-02     -7.230087e-02     -1.286284e-01     
-2.941142e-01     -5.978610e-02     1.126964e-01     -1.321488e-03     -5.899501e-02     
-4.061858e-01     -5.000000e-01     -3.356435e-01     -5.000000e-01     -5.000000e-01     
-4.046798e-01     -5.000000e-01     -5.000000e-01     -4.171720e-01     -3.350561e-01     
-3.331898e-01     -4.112100e-01     -5.000000e-01     -4.090414e-01     -5.000000e-01     
-5.000000e-01     -4.171813e-01     -5.000000e-01     -5.000000e-01     -4.129813e-01     
-5.000000e-01     -4.110969e-01     -5.000000e-01     -4.093138e-01     -5.000000e-01     
-4.012287e-01     -2.372702e-01     -2.794365e-01     -2.659833e-01     -1.216309e-01     
-1.213131e-01     -7.023525e-02     -1.720731e-01     -3.081379e-02     1.388457e-01     
1.257259e-01     1.647137e-01     2.398885e-01     3.315904e-02     7.361816e-02     
-2.228654e-01     -2.592530e-01     -2.171179e-01     -2.469646e-01     -3.000968e-01     
-3.093621e-01     -8.869461e-02     -1.136391e-01     1.007085e-02     -1.777137e-01     
-1.247503e-01     -1.242364e-01     -1.693979e-02     -1.374316e-02     2.532114e-02     
9.010778e-02     9.831866e-02     1.017773e-01     1.615903e-01     -3.014557e-01     
-4.151901e-01     -1.577996e-01     -2.357043e-01     -1.455835e-01     2.298208e-02     
-8.249390e-02     5.798689e-02     -4.291523e-01     -4.048229e-01     -5.000000e-01     
-3.882388e-01     -3.980864e-01     -4.099830e-01     -5.000000e-01     -2.885194e-01     
-4.107858e-01     -4.199913e-01     -3.352787e-01     -3.252054e-01     -2.073977e-01     
-3.195370e-01     -3.846262e-01     -1.549392e-01     -1.993978e-01     -1.455887e-02     
-1.011208e-01     1.074770e-01     1.772043e-01     2.198374e-01     -3.532096e-01     
-3.001219e-01     -2.192257e-01     5.099820e-02     -1.508407e-01     -4.323981e-01     
-3.108277e-01     -2.504506e-01     -2.420311e-01     -2.117630e-01     -3.285452e-01     
-3.068360e-01     4.041414e-02     -2.187474e-01     -9.169678e-02     -7.259330e-02     
4.150350e-02     -8.326735e-02     -4.116511e-02     -3.680274e-01     -3.351033e-01     
-3.699585e-01     -3.249335e-01     -3.190908e-01     -4.459200e-01     -1.260565e-01     
-2.958604e-01     -3.232901e-01     -2.990160e-01     -1.566757e-01     -1.976659e-01     
-2.143522e-01     -1.941556e-01     -4.494119e-02     -1.235899e-01     -1.074120e-01     
-1.728598e-01     -1.801793e-02     6.172850e-02     -2.195652e-01     -4.979227e-03     
-1.592612e-01     -1.874493e-01     -1.123977e-01     -1.918203e-01     -8.172463e-03     
-2.711606e-01     -2.204938e-01     -3.133363e-01     -3.315409e-01     -2.234484e-01     
-3.398157e-01     -2.707177e-01     -1.231269e-01     3.490453e-02     -2.466631e-01     
-1.342607e-01     -2.594341e-01     9.822835e-05     -1.372274e-01     -1.060894e-01     
-2.688934e-01     -2.923586e-02     -2.178522e-02     -8.906240e-02     -4.701431e-02     
-2.328602e-01     -9.724456e-02     -1.803283e-01     -1.295475e-01     -5.759796e-02     
-2.095044e-01     -1.488294e-01     -1.007032e-01     -3.165824e-02     -1.979535e-02     
-1.980450e-02     -9.481050e-02     -1.170894e-01     -1.504259e-01     -4.316724e-01     
-8.826555e-02     -1.600410e-01     -2.346084e-01     
4.022555e-01     
5.000000e-01     5.000000e-01     5.000000e-01     1.440526e-01     1.370172e-01     
2.000000e-01     1.000000e-01     4.136222e-01     5.000000e-01     5.000000e-01     
0.000000e+00     -3.358090e-02     -3.315300e-02     -1.000000e-01     5.000000e-01     
5.000000e-01     3.988263e-01     5.000000e-01     3.000000e-01     3.398221e-01     
3.431352e-01     4.000000e-01     4.281127e-01     5.000000e-01     5.000000e-01     
4.319890e-01     5.000000e-01     4.154058e-01     5.000000e-01     5.000000e-01     
4.135794e-01     5.000000e-01     5.000000e-01     5.000000e-01     5.000000e-01     
5.000000e-01     5.000000e-01     4.105989e-01     5.000000e-01     2.384145e-01     
2.439914e-01     5.000000e-01     4.102224e-01     5.141707e-02     5.547660e-02     
4.296031e-01     4.147818e-01     5.000000e-01     4.166410e-01     5.000000e-01     
5.000000e-01     4.117052e-01     5.000000e-01     5.000000e-01     4.192679e-01     
5.000000e-01     4.139662e-01     5.000000e-01     5.000000e-01     5.000000e-01     
4.053658e-01     3.385251e-01     5.000000e-01     4.200801e-01     4.195935e-01     
5.000000e-01     5.000000e-01     4.102142e-01     5.000000e-01     5.000000e-01     
5.000000e-01     5.000000e-01     4.095111e-01     5.000000e-01     5.000000e-01     
5.000000e-01     4.153015e-01     4.178582e-01     5.000000e-01     4.184441e-01     
3.190682e-01     4.098804e-01     5.000000e-01     3.279475e-01     4.004149e-01     
4.061553e-01     4.098295e-01     4.008107e-01     4.034381e-01     5.000000e-01     
2.371462e-02     5.287977e-02     7.334503e-02     -6.462224e-02     2.253119e-01     
2.782176e-01     2.828253e-01     3.265156e-01     2.870207e-01     2.906836e-01     
1.874109e-01     -7.713979e-02     1.472925e-01     1.018513e-01     5.069471e-02     
1.075666e-01     1.828131e-01     1.730076e-01     2.279456e-01     2.001833e-01     
-2.988429e-03     -3.368854e-03     2.320153e-01     2.609036e-01     3.227500e-01     
1.111513e-01     2.365756e-01     2.868406e-01     3.332626e-01     6.950034e-02     
1.219470e-01     1.495979e-01     1.467428e-01     5.268583e-02     1.355264e-01     
7.468346e-02     4.390606e-02     1.054263e-01     1.431634e-01     4.461796e-02     
1.732658e-01     1.364789e-01     4.358733e-02     -1.137681e-02     -1.407082e-02     
1.324116e-01     2.957717e-02     -3.345468e-02     -4.619670e-02     3.258750e-01     
2.972227e-01     2.378456e-01     1.774972e-01     2.397302e-01     8.015574e-02     
1.711531e-01     2.347697e-01     2.988119e-01     3.231408e-01     4.115051e-01     
4.189232e-01     4.170082e-01     3.448426e-01     4.127330e-01     4.202925e-01     
4.029161e-01     4.184704e-01     3.473591e-01     1.368977e-01     1.225622e-01     
3.096416e-01     -1.729986e-02     3.438501e-01     3.369641e-01     3.111055e-01     
2.044487e-01     1.885479e-01     2.353282e-01     -6.026705e-02     7.716463e-02     
4.286206e-02     9.940011e-02     -4.088278e-02     2.550259e-01     3.027324e-01     
2.100443e-01     3.860737e-01     2.048148e-01     2.240261e-01     3.385218e-01     
3.438568e-01     3.525965e-01     3.438358e-01     2.813972e-01     5.492080e-02     
3.339733e-01     3.899031e-01     5.000000e-01     3.391044e-01     2.760969e-01     
2.230292e-01     2.383350e-01     3.546374e-01     3.546533e-01     3.250863e-01     
3.297722e-01     2.713148e-01     2.975135e-01     -6.365939e-02     6.012513e-02     
-1.035602e-02     4.629024e-02     1.960923e-01     -6.669972e-02     3.102992e-01     
1.426313e-01     3.153785e-01     -1.382256e-02     2.329137e-01     -4.889083e-02     
7.034472e-02     9.643864e-03     2.392823e-01     2.798383e-01     5.526841e-02     
1.322244e-01     -2.307170e-02     4.238931e-02     2.656519e-01     2.907968e-01     
3.034090e-01     1.874650e-01     3.536054e-01     1.996415e-01     3.690869e-01     
-4.694584e-04     2.618667e-01     1.318267e-01     2.397362e-01     1.567025e-01     
-4.623874e-02     6.984407e-02     1.816885e-01     1.444082e-01     2.135838e-01     
1.714818e-01     1.197064e-02     6.465504e-02     2.967240e-02     -4.147658e-03     
2.717184e-01     1.542729e-01     2.582000e-01     2.243280e-01     3.464004e-01     
1.794806e-01     2.073334e-01     9.721807e-02     1.139759e-01     1.039844e-01     
8.959515e-02     4.590105e-02     2.619822e-02     9.773667e-02     2.005905e-01     
2.079427e-01     1.319178e-01     1.427798e-01     1.972467e-01     5.084255e-02     
4.389286e-01     3.322039e-01     2.948296e-01     
-5.000000e-01     
-5.000000e-01     -4.027361e-01     -5.000000e-01     -5.000000e-01     -4.174195e-01     
-5.000000e-01     -5.000000e-01     -5.000000e-01     -4.138855e-01     -5.000000e-01     
-5.000000e-01     -5.000000e-01     -4.181727e-01     -5.000000e-01     -3.436373e-01     
-4.000000e-01     -3.382150e-01     -3.000000e-01     -5.000000e-01     -4.174615e-01     
-5.000000e-01     -5.000000e-01     -4.300104e-01     -4.324679e-01     -5.000000e-01     
-5.000000e-01     -5.000000e-01     -5.000000e-01     -4.166513e-01     -5.000000e-01     
-5.000000e-01     -4.136191e-01     -5.000000e-01     -4.297294e-01     -5.000000e-01     
-1.000000e-01     -1.461086e-01     -1.337883e-01     -2.000000e-01     -4.147736e-01     
-5.000000e-01     -2.452230e-01     -2.344304e-01     -4.334662e-01     -5.000000e-01     
-5.000000e-01     -3.296074e-02     -4.747242e-02     -5.000000e-01     -4.167731e-01     
-2.390701e-01     -3.582186e-01     -3.343784e-01     -3.263920e-01     -3.920343e-01     
-1.627100e-01     -1.213704e-01     -6.985983e-02     -1.315413e-01     -3.396225e-01     
-3.962878e-01     -5.000000e-01     -9.101599e-02     -4.478493e-02     -2.937346e-01     
-2.923435e-01     -4.427509e-02     -6.092249e-03     5.379623e-02     -2.779790e-02     
4.593275e-02     -2.366291e-01     -1.798795e-01     -2.405524e-01     -1.432273e-01     
-2.373861e-01     -2.130554e-01     -1.380406e-01     -1.915644e-01     -1.942987e-01     
-1.710999e-01     -3.859875e-01     -3.275702e-01     -5.000000e-01     -1.518372e-02     
-2.409927e-01     -2.671951e-01     -3.023762e-01     -1.709137e-01     -1.328848e-01     
-3.978846e-01     -3.420148e-01     -5.000000e-01     -3.308520e-01     -2.290687e-01     
-2.736084e-01     -3.306616e-01     -2.610949e-01     -3.876322e-01     -5.000000e-01     
-5.000000e-01     -3.879698e-01     -1.564646e-01     -1.819551e-01     -1.468052e-01     
-2.425956e-01     -3.866538e-01     -3.277683e-01     -1.117702e-01     -1.657678e-01     
-2.427119e-01     -1.793849e-01     -7.773377e-04     -5.895842e-02     -6.432774e-02     
-3.041262e-01     -5.000000e-01     -4.176479e-01     -5.000000e-01     -5.000000e-01     
-4.168171e-01     -5.000000e-01     -5.000000e-01     -5.000000e-01     -5.000000e-01     
-4.222678e-01     -5.000000e-01     -5.000000e-01     -5.000000e-01     -5.000000e-01     
-4.093704e-01     -5.000000e-01     -5.000000e-01     -4.174976e-01     -5.000000e-01     
-4.068440e-01     -4.156847e-01     -5.000000e-01     -5.000000e-01     -5.000000e-01     
-4.139142e-01     -5.000000e-01     -4.123455e-01     -5.000000e-01     -4.095245e-01     
-4.124722e-01     -5.000000e-01     -4.043216e-01     -5.000000e-01     -4.124435e-01     
-1.121461e-01     -4.160523e-01     -1.800250e-01     -3.042047e-01     -3.056513e-01     
-1.073510e-01     -1.046229e-01     -3.236253e-01     -8.658382e-02     -5.375772e-02     
-1.671312e-01     -2.918028e-01     3.187424e-03     5.410100e-02     -6.285127e-02     
1.765416e-02     -2.571999e-01     -3.425590e-01     -4.167946e-01     -4.091550e-01     
-4.162048e-01     -4.336902e-01     -4.128204e-01     -4.245586e-01     -4.093153e-01     
-4.171644e-01     -4.198610e-01     -4.189208e-01     -5.000000e-01     -4.254589e-01     
-3.286454e-01     -4.253585e-01     -2.395470e-01     -8.719599e-02     -5.669591e-02     
-1.416691e-01     -6.931173e-02     -3.069292e-02     2.885639e-03     3.372893e-02     
-2.235383e-01     -3.814029e-01     -2.757137e-01     -1.924303e-01     -3.260200e-01     
-3.349932e-01     6.506231e-02     -4.334588e-02     -1.203543e-01     -1.156740e-01     
-4.206277e-02     -2.333918e-01     -4.586274e-02     -8.017357e-02     -4.823775e-03     
-2.980134e-01     -2.406454e-01     -3.263607e-01     -3.332785e-01     -2.167022e-01     
-2.335928e-01     -3.232020e-01     -3.534882e-01     -2.475486e-01     -2.669173e-01     
-3.175967e-01     -3.937222e-01     -3.359748e-01     -2.351191e-01     -1.560208e-01     
-1.713404e-01     -1.750036e-01     -2.665914e-01     1.703506e-02     -7.891721e-02     
-3.926417e-02     -3.766535e-02     -1.823315e-01     -1.314071e-01     -2.495125e-01     
-2.236478e-01     -3.451845e-01     -2.489276e-01     -3.333888e-01     -3.300617e-01     
-3.651423e-01     -1.635886e-01     -2.319624e-01     -1.593557e-01     -3.342696e-01     
-1.714648e-01     -2.571945e-01     -2.536128e-01     -1.536799e-01     -1.358555e-01     
-8.880661e-02     -3.198280e-02     1.555004e-02     -7.257091e-02     -3.402914e-01     
-1.264903e-01     -3.722202e-01     -5.257005e-02     -7.657097e-02     -9.002747e-02     
2.382818e-02     2.148884e-02     -1.528913e-01     -9.718431e-02     -2.489746e-01     
-1.838818e-01     -3.381193e-01     -3.471793e-01     

0      
0      0      0      0      0      0      0      0      0      0      
0      0      0      0      0      0      0      0      0      0      
0      0      0      0      0      0      0      0      0      0      
0      0      0      0      0      0      0      0      0      0      
0      0      0      0      0      0      0      0      0      0      
0      0      0      0      0      0      0      0      0      0      
0      0      0      0      0      0      0      0      0      0      
0      0      0      0      0      0      0      0      0      0      
0      0      0      0      0      0      0      0      0      0      
0      0      0      0      0      0      0      0      0      0      
0      0      0      0      0      0      0      0      0      0      
0      0      0      0      0      0      0      0      0      0      
0      0      0      0      0      0      0      0      0      0      
0      0      0      0      0      0      0      0      0      0      
0      0      0      0      0      0      0      0      0      0      
0      0      0      0      0      0      0      0      0      0      
0      0      0      0      0      0      0      0      0      0      
0      0      0      0      0      0      0      0      0      0      
0      0      0      0      0      0      0      0      0      0      
0      0      0      0      0      0      0      0      0      0      
0      0      0      0      0      0      0      0      0      0      
0      0      0      0      0      0      0      0      0      0      
0      0      0      0      0      0      0      0      0      0      
0      0      0      0      0      0      0      0      0      0      
0      0      0      0      0      0      0      0      0      0      
0      0      0      0      0      0      0      0      0      0      
0      0      0      0      0      0      0      0      0      0      
0      0      0      0      0      0      0      0      0      0      
0      0      0      0      0      0      0      0      0      0      
0      0      0      0      0      0      0      0      0      0      
0      0      0      0      0      0      0      0      0      0      
0      0      0      0      0      0      0      0      0      0      
0      0      0      0      0      0      0      0      0      0      
0      0      0      0      0      0      0      0      0      0      
0      0      0      0      0      0      0      0      0      0      
0      0      0      0      0      0      0      0      0      0      
0      0      0      0      0      0      0      0      0      0      
0      0      0      0      0      0      0      0      0      0      
0      0      0      0      0      0      0      0      0      0      
0      0      0      0      0      0      0      0      0      0      
0      0      0      0      0      0      0      0      0      0      
0      0      0      0      0      0      0      0      0      0      
0      0      0      0      0      0      0      0      0      0      
0      0      0      0      0      0      0      0      0      0      
0      0      0      0      0      0      0      0      0      0      
0      0      0      0      0      0      0      0      0      0      
0      0      0      0      0      0      0      0      0      0      
0      0      0      0      0      0      0      0      0      0      
0      0      0      0      0      0      0      0      0      0      
0      0      0      0      0      0      0      0      0      0      
0      0      0      0      0      0      0      0      0      0      
0      0      0      0      0      0      0      0      0      0      
0      0      0      0      0      0      0      0      0      0      
0      0      0      0      0      0      0      0      0      0      
0      0      0      0      0      0      0      0      0      0      
0      0      0      0      0      0      0      0      0      0      
0      0      0      0      0      0      0      0      0      0      
0      0      0      0      0      0      0      0      0      0      
0      0      0      0      0      0      0      0      0      0      
0      0      0      0      0      0      0      0      0      0      
0      0      0      0      0      0      0      0      0      0      
0      0      0      0      0      0      0      0      0      0      
0      0      0      0      0      0      0      0      0      0      
0      0      0      0      0      0      0      0      0      0      
0      0      0      0      0      0      0      0      0      0      
0      0      0      0      0      0      0      0      0      0      
0      0      0      0      0      0      0      0      0      0      
0      0      0      0      0      0      0      0      0      0      
0      0      0      0      0      0      0      0      0      0      
0      0      0      0      0      0      0      0      0      0      
0      0      0      0      0      0      0      0      0      0      
0      0      0      0      0      0      0      0      0      0      
0      0      0      0      0      0      0      0      0      0      
0      0      0      0      0      0      0      0      0      0      
0      0      0      0      0      0      0      0      0      0      
0      0      0      0      0      0      0      0      0      0      
0      0      0      0      0      0      0      0      0      0      
0      0      0      0      0      0      0      0      0      0      
0      0      0      0      0      0      0      0      0      0      
0      0      0      0      0      0      0      0      0      0      
0      0      0      0      0      0      0      0      0      0      
0      0      0      0      0      0      0      0      0      0      
0      0      0      0      0      0      0      0      0      0      
0      0      0      0      0      0      0      0      0      0      
0      0      0      0      0      0      0      0      0      0      
0      0      0      0      0      0      0      0      0      0      
0      0      0      0      0      0      0      0      0      0      
0      0      0      0      0      0      0      0      0      0      
0      0      0      0      0      0      0      0      0      0      
0      0      0      0      0      0      0      0      0      0      
0      0      0      0      0      0      0      0      0      0      
0      0      0      0      0      0      0      0      0      0      
0      0      0      0      0      0      0      0      0      0      
0      0      1      1      1      1      1      1      1      1      
1      1      1      1      1      1      1      1      1      1      
1      1      1      1      1      1      1      1      1      1      
1      1      1      1      1      1      1      1      1      1      
1      1      1      1      1      1      1      1      1      1      
1      1      1      1      1      1      1      1      1      1      
1      1      1      1      1      1      1      1      1      1      
1      1      1      1      1      1      1      1      1      1      
1      1      1      1      1      1      1      1      1      1      
1      1      1      1      1      1      1      1      1      1      
1      1      1      1      1      1      1      1      1      1      
1      1      1      1      1      1      1      1      1      1      
1      1      1      1      1      1      1      1      1      1      
1      1      1      1      1      1      1      1      1      1      
1      1      1      1      1      1      1      1      1      1      
1      1      1      1      1      1      1      1      1      1      
1      1      1      1      1      1      1      1      1      1      
1      1      1      1      1      1      1      1      1      1      
1      1      1      1      1      1      1      1      1      1      
1      1      1      1      1      1      1      1      1      1      
1      1      1      1      1      1      1      1      1      1      
1      1      1      1      1      1      1      1      1      1      
1      1      1      1      1      1      1      1      1      1      
1      1      1      1      1      1      1      1      1      1      
1      1      1      1      1      1      1      1      1      1      
1      1      1      1      1      1      1      1      1      1      
1      1      1      1      1      1      1      1      1      1      
1      1      1      1      1      1      1      1      1      1      
1      1      1      1      1      1      1      1      1      1      
1      1      1      1      1      1      1      1      1      1      
1      1      1      1      1      1      1      1      1      1      
1      1      1      1      1      1      1      1      1      1      
1      1      1      1      1      1      1      1      1      1      
1      1      1      1      1      1      1      1      1      1      
1      1      1      1      1      1      1      1      1      1      
1      1      1      1      1      1      1      1      1      1      
1      1      1      1      1      1      

1      2      3      56      
3      2      1      4      
1      3      4      151      
5      6      7      108      
7      6      5      8      
5      8      6      173      
9      4      10      151      
10      4      9      11      
9      10      11      153      
12      13      14      92      
14      13      12      15      
15      14      13      103      
16      17      18      56      
18      17      16      19      
16      18      19      66      
20      21      22      100      
22      21      20      23      
23      22      21      24      
22      21      24      56      
23      22      24      47      
25      26      27      29      
27      26      25      28      
25      27      28      51      
25      29      27      178      
25      26      29      30      
29      30      26      31      
25      30      29      178      
32      11      33      153      
33      11      32      34      
32      33      34      83      
24      35      36      47      
36      35      24      17      
24      17      35      56      
37      38      39      152      
39      38      37      40      
40      39      38      81      
7      41      42      108      
42      41      7      20      
20      42      41      100      
43      19      44      66      
44      19      43      40      
43      44      40      81      
45      8      46      173      
46      8      45      12      
45      46      12      92      
24      47      22      56      
23      47      24      36      
36      47      35      2      
24      35      47      56      
2      47      35      56      
50      34      51      83      
51      34      50      28      
50      51      28      27      
27      51      25      62      
50      51      27      62      
52      53      54      87      
54      53      52      55      
55      54      53      10      
55      53      52      155      
54      53      10      151      
55      10      53      153      
21      56      22      181      
24      56      21      18      
18      24      56      17      
18      56      21      159      
16      56      18      66      
17      56      16      35      
35      56      16      3      
2      56      1      47      
47      56      1      22      
35      2      56      3      
1      56      3      151      
3      56      16      66      
22      56      1      181      
57      58      59      157      
59      58      57      60      
60      59      58      188      
60      58      57      78      
61      62      51      84      
51      62      61      25      
25      62      61      178      
25      27      62      178      
63      62      27      178      
27      62      63      50      
50      62      63      176      
50      51      62      83      
18      66      56      159      
67      66      43      81      
43      66      67      16      
16      43      66      19      
16      66      67      3      
3      66      67      151      
3      56      66      151      
19      66      18      44      
43      66      44      81      
44      66      18      159      
68      69      70      72      
70      69      68      71      
71      69      68      157      
73      74      75      156      
75      74      73      76      
76      74      73      90      
77      78      57      262      
57      78      77      52      
52      57      78      60      
52      78      77      155      
52      60      78      79      
57      78      58      262      
60      58      78      79      
60      79      52      80      
80      60      79      64      
80      79      52      87      
52      79      78      87      
58      78      79      154      
58      79      60      188      
60      79      64      188      
80      64      79      38      
38      64      79      152      
38      79      80      81      
79      81      38      152      
80      38      81      43      
80      81      79      87      
67      81      80      87      
80      81      67      43      
66      81      67      87      
43      38      81      40      
44      81      66      159      
40      81      44      39      
38      81      39      152      
39      81      44      82      
82      81      44      99      
39      81      82      152      
55      83      33      153      
33      83      55      84      
84      33      83      51      
84      83      55      155      
85      83      50      176      
50      83      85      32      
32      50      83      34      
32      83      85      142      
62      83      51      84      
50      83      62      176      
51      33      83      34      
62      83      84      156      
32      33      83      153      
52      80      87      67      
79      87      81      187      
52      67      87      54      
81      87      66      208      
67      66      87      182      
54      67      87      182      
53      87      52      194      
54      87      53      182      
78      52      87      194      
78      87      79      154      
73      88      77      262      
77      88      73      84      
84      77      88      155      
84      88      73      156      
76      90      91      158      
91      90      76      73      
73      91      90      262      
73      90      74      156      
76      74      90      158      
14      92      13      103      
12      13      92      46      
12      92      14      45      
13      92      46      94      
45      92      14      93      
46      92      45      173      
93      92      14      95      
45      92      93      173      
94      92      46      173      
13      92      94      172      
93      92      95      163      
14      95      92      103      
96      97      98      168      
98      97      96      99      
99      98      97      159      
99      97      96      162      
98      100      41      108      
41      100      98      21      
21      41      100      20      
21      100      98      159      
41      100      42      108      
20      42      100      22      
42      100      22      101      
22      100      21      181      
42      100      101      102      
102      42      100      108      
102      100      101      119      
95      92      103      163      
13      103      92      170      
104      105      106      160      