title = " tecplot file for process Mesh " 
variables = "x",  "y", "z", "cell_type" 
zone N = 283 E = 1357 DATAPACKING = BLOCK,  VARLOCATION = ([4]=CELLCENTERED), ZONETYPE=FETETRAHEDRON 
2.383810e-01     
2.388790e-01     3.000000e-01     2.000000e-01     1.373247e-01     1.370275e-01     
1.000000e-01     4.138911e-01     5.000000e-01     5.000000e-01     5.000000e-01     
5.000000e-01     5.000000e-01     4.098849e-01     5.000000e-01     3.402390e-01     
4.000000e-01     3.397702e-01     4.280829e-01     5.000000e-01     4.098187e-01     
5.000000e-01     3.986711e-01     5.000000e-01     5.000000e-01     5.000000e-01     
5.000000e-01     4.122947e-01     5.000000e-01     5.000000e-01     5.000000e-01     
4.113895e-01     5.000000e-01     5.000000e-01     5.000000e-01     3.994830e-01     
5.000000e-01     4.283365e-01     5.000000e-01     4.230521e-01     5.000000e-01     
5.000000e-01     5.000000e-01     5.000000e-01     4.303613e-01     5.000000e-01     
4.122529e-01     5.000000e-01     5.000000e-01     4.160512e-01     5.000000e-01     
5.000000e-01     4.221384e-01     4.235157e-01     4.196692e-01     5.000000e-01     
4.182933e-01     5.000000e-01     5.000000e-01     4.187492e-01     5.000000e-01     
4.179799e-01     5.000000e-01     4.057252e-01     5.000000e-01     4.167851e-01     
5.000000e-01     4.176845e-01     5.000000e-01     4.164386e-01     3.267894e-01     
4.073562e-01     5.000000e-01     4.088398e-01     5.288504e-02     2.372490e-02     
5.142756e-02     1.728584e-01     2.777140e-01     2.245439e-01     2.825865e-01     
3.260115e-01     1.458173e-01     1.011689e-01     1.073171e-01     -2.937004e-03     
5.037238e-02     2.869126e-01     2.839863e-01     1.501960e-01     1.742860e-01     
2.351653e-01     1.374968e-01     1.827557e-01     1.742046e-01     2.256724e-01     
1.986779e-01     -5.767558e-03     -4.244873e-03     2.284843e-01     2.583683e-01     
3.209482e-01     1.180346e-01     9.917837e-02     5.242170e-02     3.351150e-01     
2.977917e-01     -1.216309e-01     -1.213131e-01     -7.023525e-02     -1.720731e-01     
-3.081379e-02     3.372304e-01     3.282220e-01     1.388457e-01     1.257259e-01     
1.647137e-01     2.398885e-01     3.315904e-02     7.361816e-02     2.149701e-01     
2.403081e-01     5.683595e-02     1.064663e-01     1.101390e-01     1.524239e-01     
2.280630e-01     2.927288e-01     3.219014e-01     2.333272e-01     1.725313e-01     
1.318427e-01     -8.869461e-02     -1.136391e-01     1.007085e-02     2.940060e-01     
2.532114e-02     9.010778e-02     4.238882e-03     -5.419015e-02     1.125923e-01     
5.343321e-02     -4.404711e-03     7.184389e-02     4.206741e-01     4.101700e-01     
3.567247e-01     4.232745e-01     4.168254e-01     4.127808e-01     4.044243e-01     
3.471469e-01     3.087477e-01     1.961318e-01     1.312557e-01     2.432708e-02     
-1.702191e-02     -5.733944e-02     -1.117001e-01     1.653039e-01     1.007869e-01     
4.251245e-01     3.059595e-01     -2.171179e-01     -2.073977e-01     2.257497e-01     
-1.549392e-01     9.197105e-02     5.155478e-02     1.772043e-01     -1.166339e-01     
1.283474e-02     -1.098876e-01     -1.630298e-02     8.695869e-02     1.598904e-01     
3.245082e-01     3.855291e-01     3.524303e-01     3.179778e-01     3.469242e-01     
2.825846e-01     3.796425e-01     2.445006e-01     3.326454e-01     2.756920e-01     
3.216928e-01     2.291232e-01     1.800400e-01     1.260943e-01     1.030467e-01     
-6.364385e-02     2.374924e-01     1.324135e-01     2.484531e-01     3.348320e-01     
2.706521e-01     2.013146e-01     2.496232e-01     3.455114e-01     3.228332e-01     
3.297590e-01     1.760071e-01     2.002770e-01     1.097455e-01     3.379978e-01     
2.854133e-01     -8.321667e-02     5.218213e-02     -7.505978e-02     2.312966e-01     
1.713239e-01     -5.147096e-02     -4.938817e-02     -9.162179e-02     1.586663e-02     
-1.493282e-02     -8.676880e-02     -1.801793e-02     6.172850e-02     3.412021e-01     
2.964894e-01     3.203314e-01     3.409599e-01     2.349369e-01     3.339947e-01     
3.374313e-01     3.031765e-01     1.936646e-01     3.249805e-01     -1.728598e-01     
-1.074120e-01     -1.231269e-01     3.490453e-02     9.507482e-02     -1.342607e-01     
2.624738e-01     1.504191e-01     2.789008e-01     3.438444e-02     3.162134e-02     
1.088349e-01     1.972600e-01     1.570651e-01     1.676496e-01     -8.746209e-02     
3.219331e-02     1.723560e-01     1.364820e-01     7.790079e-02     1.133502e-02     
9.822835e-05     -2.541109e-02     -2.362282e-02     -1.060894e-01     5.703769e-02     
8.387819e-02     7.905179e-02     1.498652e-01     5.146898e-02     1.158583e-01     
2.110073e-01     -1.957481e-02     1.559192e-01     2.590701e-01     2.363186e-01     
2.364907e-01     -5.759796e-02     -2.923586e-02     2.306298e-01     -6.584375e-02     
2.828044e-02     -8.680247e-03     -1.488294e-01     2.622141e-02     1.131434e-01     
2.118781e-01     -1.170894e-01     1.754286e-01     3.579116e-01     2.626539e-01     
1.856247e-01     8.936246e-02     
-5.000000e-01     
-4.147234e-01     -5.000000e-01     -5.000000e-01     -4.168882e-01     -5.000000e-01     
-5.000000e-01     -5.000000e-01     -5.000000e-01     -4.188956e-01     -4.181984e-01     
-5.000000e-01     -4.156489e-01     -5.000000e-01     -5.000000e-01     -4.176242e-01     
-5.000000e-01     -5.000000e-01     -5.000000e-01     -4.153699e-01     -5.000000e-01     
-5.000000e-01     -5.000000e-01     -5.000000e-01     -4.182065e-01     -4.304764e-01     
-5.000000e-01     -1.348476e-01     -1.342329e-01     -2.000000e-01     -1.000000e-01     
-2.351197e-01     -2.350089e-01     -3.000000e-01     -3.389313e-01     -3.385744e-01     
-4.000000e-01     -4.301559e-01     -2.691570e-01     -2.872865e-01     -2.533145e-01     
-3.393881e-01     -3.333612e-01     -1.785461e-01     -2.840612e-01     -2.623326e-01     
-2.232663e-01     -1.724573e-01     -1.636444e-01     -1.911011e-01     -2.461408e-01     
-1.635182e-01     -3.958714e-01     -3.650669e-01     -3.890695e-01     -3.278680e-01     
-3.884739e-01     -3.318452e-01     -8.318273e-02     -5.134342e-02     -6.639593e-02     
-3.024566e-01     -2.314059e-01     -1.703471e-01     -1.159911e-01     -3.862956e-01     
-6.578211e-02     -7.782309e-02     -3.345431e-02     -3.416514e-02     -6.683582e-02     
-2.970397e-01     -4.094274e-03     -6.195581e-02     -5.000000e-01     -4.261663e-01     
-5.000000e-01     -5.000000e-01     -4.132821e-01     -5.000000e-01     -5.000000e-01     
-5.000000e-01     -5.000000e-01     -4.219029e-01     -5.000000e-01     -5.000000e-01     
-5.000000e-01     -4.154012e-01     -3.309992e-01     -5.000000e-01     -4.098718e-01     
-5.000000e-01     -5.000000e-01     -4.115795e-01     -3.274000e-01     -5.000000e-01     
-4.039836e-01     -5.000000e-01     -4.120401e-01     -5.000000e-01     -4.084011e-01     
-5.000000e-01     -5.000000e-01     -4.035043e-01     -4.080957e-01     -5.000000e-01     
-4.003213e-01     6.950034e-02     1.219470e-01     1.495979e-01     1.467428e-01     
5.268583e-02     -3.104766e-01     -2.618563e-01     1.355264e-01     7.468346e-02     
4.390606e-02     1.054263e-01     1.431634e-01     4.461796e-02     4.765546e-02     
-6.365995e-03     -1.449067e-01     -1.810377e-01     -2.414973e-01     -1.567090e-01     
-2.297387e-01     -2.213852e-01     -1.725605e-01     -1.139788e-01     -1.083810e-01     
-5.445517e-02     2.957717e-02     -3.345468e-02     -4.619670e-02     -1.177917e-01     
8.015574e-02     1.711531e-01     -1.099696e-01     -1.388053e-01     -3.030324e-01     
-3.401999e-01     -3.019520e-01     -1.867797e-02     -1.948771e-01     -1.171414e-01     
-4.135243e-01     -3.076867e-01     -1.587812e-01     -1.469433e-01     -8.069215e-02     
-4.298986e-01     -3.892964e-01     -4.097718e-01     -4.017245e-01     -4.183076e-01     
-4.125561e-01     -5.000000e-01     -5.000000e-01     -4.002265e-01     -4.243209e-01     
-2.891129e-01     -4.787820e-03     4.358733e-02     7.716463e-02     -3.098123e-01     
-4.088278e-02     -3.822720e-01     -4.326681e-01     2.048148e-01     -2.960736e-01     
-2.066505e-01     -1.722127e-01     -3.678818e-01     -1.016832e-01     -2.162367e-02     
-3.075439e-01     -2.228784e-01     -4.389718e-01     -5.000000e-01     -3.638362e-01     
-3.715318e-01     -2.260029e-01     -3.394432e-01     -2.507894e-01     -2.734785e-01     
-2.457445e-01     -3.469664e-01     1.265987e-01     -2.963745e-01     -3.155017e-01     
-2.367926e-01     -5.458021e-02     -1.196046e-02     -5.069630e-02     -1.229664e-01     
-3.283915e-02     -3.179462e-01     -2.917544e-01     -1.704600e-01     -1.070667e-01     
-6.153132e-02     -1.155804e-01     -2.051896e-01     -1.887047e-01     -3.175963e-01     
-3.092529e-01     -8.937836e-02     -2.333157e-01     -3.593588e-01     -2.843860e-01     
-2.865481e-01     -2.833599e-01     -1.934466e-01     -3.210125e-01     -9.070212e-02     
4.256697e-03     -9.009057e-02     -2.307170e-02     4.238931e-02     -2.154933e-01     
-1.408985e-01     -4.705125e-02     -5.901176e-02     -4.055738e-01     -2.938918e-01     
-1.634167e-01     -1.926404e-01     5.585659e-02     -1.157303e-03     1.322244e-01     
5.526841e-02     1.816885e-01     1.444082e-01     5.786111e-02     1.714818e-01     
-1.215376e-01     -1.863629e-01     -3.525105e-01     -3.293514e-01     -2.891629e-01     
-3.193928e-01     -3.455042e-01     -2.831383e-01     -3.348211e-01     -1.592217e-01     
-1.878436e-01     -9.142106e-03     -6.029281e-02     8.039002e-03     -1.764174e-01     
6.465504e-02     -2.585592e-02     2.650584e-02     -4.147658e-03     -2.981531e-02     
-8.842640e-02     -2.734712e-01     -8.010773e-02     -8.234295e-02     -1.516871e-01     
-1.631262e-01     -1.540425e-01     -2.267822e-01     -2.300906e-01     -3.938057e-01     
-1.328112e-01     1.039844e-01     1.542729e-01     -2.381574e-01     -1.916077e-01     
-1.567076e-01     -9.220390e-02     4.590105e-02     -1.703304e-01     -1.554318e-01     
-1.397422e-01     1.427798e-01     -2.401959e-01     -4.391886e-01     -7.572686e-02     
-3.464308e-01     -1.268572e-01     
-4.152538e-01     
-5.000000e-01     -5.000000e-01     -5.000000e-01     -5.000000e-01     -4.181532e-01     
-5.000000e-01     -3.301221e-02     0.000000e+00     4.866508e-02     -4.950366e-02     
-1.000000e-01     -1.478554e-01     -1.338943e-01     -2.000000e-01     -5.000000e-01     
-5.000000e-01     -4.176866e-01     -4.300923e-01     -2.463848e-01     -2.345918e-01     
-3.000000e-01     -3.384161e-01     -4.000000e-01     -3.442961e-01     -4.300217e-01     
-5.000000e-01     -5.000000e-01     -4.134876e-01     -5.000000e-01     -5.000000e-01     
-5.000000e-01     -4.142185e-01     -5.000000e-01     -4.033167e-01     -5.000000e-01     
-5.000000e-01     -5.000000e-01     4.352172e-02     1.420023e-03     -3.881931e-02     
-4.423402e-04     -9.511343e-02     3.562174e-02     8.771642e-02     -3.353896e-01     
-3.588129e-01     -3.268307e-01     -1.650022e-01     -1.250842e-01     -1.357217e-01     
-7.452855e-02     -3.925448e-01     4.740398e-02     -9.749084e-02     -1.941307e-01     
-2.948077e-01     -2.937422e-01     -1.924155e-02     -6.902415e-02     -1.328559e-01     
-1.416553e-01     -2.409571e-01     -2.145326e-01     -2.376384e-01     -1.961236e-01     
-3.266934e-01     -3.854655e-01     -4.162155e-01     -5.000000e-01     -5.000000e-01     
-2.429433e-01     -2.336348e-01     -2.659889e-01     -3.437939e-01     -3.990269e-01     
-4.342096e-01     -3.290329e-01     -2.743597e-01     -2.302108e-01     -3.312837e-01     
-2.615847e-01     -1.586453e-01     -1.854388e-01     -2.452712e-01     -2.462603e-01     
-1.523998e-01     -3.880747e-01     -5.000000e-01     1.568161e-01     1.100328e-01     
1.123584e-01     6.092387e-02     -3.874800e-01     -5.000000e-01     -1.126206e-01     
-1.671589e-01     -6.195801e-02     -1.228837e-01     -1.033622e-03     -5.940573e-02     
-6.456296e-02     -5.564519e-02     1.142486e-02     -2.784418e-01     5.405715e-02     
1.139868e-01     -5.000000e-01     -4.168171e-01     -5.000000e-01     -5.000000e-01     
-5.000000e-01     -4.054947e-01     -5.000000e-01     -5.000000e-01     -4.222678e-01     
-5.000000e-01     -5.000000e-01     -5.000000e-01     -5.000000e-01     -4.087213e-01     
-5.000000e-01     -5.000000e-01     -4.099224e-01     -5.000000e-01     -5.000000e-01     
-5.000000e-01     -4.141189e-01     -5.000000e-01     -5.000000e-01     -4.039369e-01     
-5.000000e-01     -4.156847e-01     -5.000000e-01     -5.000000e-01     -4.132928e-01     
-4.095245e-01     -4.124722e-01     -4.079644e-01     -5.000000e-01     -4.008383e-01     
-5.000000e-01     -4.027988e-01     -4.061719e-01     -2.819864e-02     2.897882e-02     
-1.728220e-02     -3.322546e-01     -4.167074e-01     -3.047901e-01     -1.657397e-01     
-3.256828e-01     -1.704207e-01     1.528624e-02     -8.771877e-02     -3.724132e-02     
-2.157014e-01     -1.542932e-01     -2.454988e-01     -2.761386e-01     -3.525814e-01     
-4.258819e-01     -4.174105e-01     -5.000000e-01     -4.091550e-01     -4.026859e-01     
-4.128204e-01     -4.330288e-01     -5.000000e-01     -4.189208e-01     -4.121145e-01     
-4.094005e-01     -4.121949e-01     -3.331742e-01     -3.493031e-01     -4.216653e-01     
-6.537041e-02     -2.781716e-01     -1.158871e-01     -1.715377e-01     -2.470647e-01     
2.473656e-02     -4.294775e-01     -2.221125e-01     -3.445451e-01     -2.850476e-01     
-1.798691e-01     -3.176112e-01     -3.488011e-01     -1.634586e-01     -2.951537e-01     
-3.305522e-01     -4.126243e-01     -3.214455e-01     -2.742190e-01     -8.873213e-02     
-1.065757e-01     6.646995e-02     -1.147283e-02     -3.850297e-01     -2.262354e-01     
-3.355425e-01     -3.028668e-01     -3.436130e-01     -3.134421e-01     -1.450895e-01     
-3.507183e-01     -3.510303e-01     -2.496117e-01     -1.260736e-01     -1.245410e-01     
-3.395796e-01     -1.643878e-01     -2.293956e-01     -3.307006e-01     -2.713885e-01     
-3.071596e-01     -2.447248e-01     -3.937222e-01     -3.359748e-01     -7.383668e-02     
9.874390e-03     5.612593e-02     -2.858808e-02     1.475814e-01     2.800556e-02     
-1.638307e-01     -2.520787e-01     -2.773513e-01     -2.467384e-01     -3.175967e-01     
-2.669173e-01     -2.489276e-01     -3.333888e-01     -2.534519e-01     -3.651423e-01     
-3.286317e-01     -2.016649e-01     -1.090523e-01     -1.575708e-01     -6.230164e-02     
-8.298573e-02     -7.050786e-02     -2.246243e-02     -2.925726e-01     -2.995653e-01     
-1.351391e-01     -1.929470e-01     -2.511621e-01     -1.699825e-01     -3.170221e-01     
-2.319624e-01     -2.208904e-01     -1.452995e-01     -3.342696e-01     -3.023907e-01     
-1.900583e-01     3.849417e-03     -1.039839e-01     -5.766458e-02     -3.152298e-02     
-5.282582e-02     3.413638e-02     -1.020221e-01     -6.724497e-02     7.599875e-02     
-2.373910e-01     -3.402914e-01     -2.571945e-01     -2.083476e-01     -1.326620e-01     
-2.162035e-01     -1.422391e-01     -3.722202e-01     -4.453414e-02     -1.288893e-01     
-1.453962e-01     -1.528913e-01     -4.251215e-01     -2.170295e-01     -3.868051e-02     
1.524600e-01     -2.627030e-01     

0      
0      0      0      0      0      0      0      0      0      0      
0      0      0      0      0      0      0      0      0      0      
0      0      0      0      0      0      0      0      0      0      
0      0      0      0      0      0      0      0      0      0      
0      0      0      0      0      0      0      0      0      0      
0      0      0      0      0      0      0      0      0      0      
0      0      0      0      0      0      0      0      0      0      
0      0      0      0      0      0      0      0      0      0      
0      0      0      0      0      0      0      0      0      0      
0      0      0      0      0      0      0      0      0      0      
0      0      0      0      0      0      0      0      0      0      
0      0      0      0      0      0      0      0      0      0      
0      0      0      0      0      0      0      0      0      0      
0      0      0      0      0      0      0      0      0      0      
0      0      0      0      0      0      0      0      0      0      
0      0      0      0      0      0      0      0      0      0      
0      0      0      0      0      0      0      0      0      0      
0      0      0      0      0      0      0      0      0      0      
0      0      0      0      0      0      0      0      0      0      
0      0      0      0      0      0      0      0      0      0      
0      0      0      0      0      0      0      0      0      0      
0      0      0      0      0      0      0      0      0      0      
0      0      0      0      0      0      0      0      0      0      
0      0      0      0      0      0      0      0      0      0      
0      0      0      0      0      0      0      0      0      0      
0      0      0      0      0      0      0      0      0      0      
0      0      0      0      0      0      0      0      0      0      
0      0      0      0      0      0      0      0      0      0      
0      0      0      0      0      0      0      0      0      0      
0      0      0      0      0      0      0      0      0      0      
0      0      0      0      0      0      0      0      0      0      
0      0      0      0      0      0      0      0      0      0      
0      0      0      0      0      0      0      0      0      0      
0      0      0      0      0      0      0      0      0      0      
0      0      0      0      0      0      0      0      0      0      
0      0      0      0      0      0      0      0      0      0      
0      0      0      0      0      0      0      0      0      0      
0      0      0      0      0      0      0      0      0      0      
0      0      0      0      0      0      0      0      0      0      
0      0      0      0      0      0      0      0      0      0      
0      0      0      0      0      0      0      0      0      0      
0      0      0      0      0      0      0      0      0      0      
0      0      0      0      0      0      0      0      0      0      
0      0      0      0      0      0      0      0      0      0      
0      0      0      0      0      0      0      0      0      0      
0      0      0      0      0      0      0      0      0      0      
0      0      0      0      0      0      0      0      0      0      
0      0      0      0      0      0      0      0      0      0      
0      0      0      0      0      0      0      0      0      0      
0      0      0      0      0      0      0      0      0      0      
0      0      0      0      0      0      0      0      0      0      
0      0      0      0      0      0      0      0      0      0      
0      0      0      0      0      0      0      0      0      0      
0      0      0      0      0      0      0      0      0      0      
0      0      0      0      0      0      0      0      0      0      
0      0      0      0      0      0      0      0      0      0      
0      0      0      0      0      0      0      0      0      0      
0      0      0      0      0      0      0      0      0      0      
0      0      0      0      0      0      0      0      0      0      
0      0      0      0      0      0      0      0      0      0      
0      0      0      0      0      0      0      0      0      0      
0      0      0      0      0      0      0      0      0      0      
0      0      0      0      0      0      0      0      0      0      
0      0      0      0      0      0      0      0      0      0      
0      0      0      0      0      0      0      0      0      0      
0      0      0      0      0      0      0      0      0      0      
0      0      0      0      0      0      0      0      0      0      
0      0      0      0      0      0      0      0      0      0      
0      0      0      0      0      0      0      0      0      0      
0      0      0      0      0      0      0      0      0      0      
0      0      0      0      0      0      0      0      0      0      
0      0      0      0      0      0      0      0      0      0      
0      0      0      0      0      0      0      0      0      0      
0      0      0      0      0      0      0      0      0      0      
0      0      0      0      0      0      0      0      0      0      
0      0      0      0      0      0      0      0      0      0      
0      0      0      0      0      0      0      0      0      0      
0      0      0      0      0      0      0      0      0      0      
0      0      0      0      0      0      0      0      0      0      
0      0      0      0      0      0      0      0      0      0      
0      0      0      0      0      0      0      0      0      0      
0      0      0      0      0      0      0      0      0      0      
0      0      0      0      0      0      0      0      0      0      
0      0      0      0      0      0      0      0      0      0      
0      0      0      0      0      0      0      0      0      0      
0      0      0      0      0      0      0      0      0      0      
0      0      0      0      0      0      0      0      0      0      
0      0      0      0      0      0      0      0      0      0      
0      0      0      0      0      0      0      0      0      0      
0      0      0      0      0      0      0      0      0      0      
0      0      0      0      0      0      0      0      0      0      
0      0      0      0      0      0      0      0      0      0      
0      0      0      0      0      0      0      0      0      0      
0      0      1      1      1      1      1      1      1      1      
1      1      1      1      1      1      1      1      1      1      
1      1      1      1      1      1      1      1      1      1      
1      1      1      1      1      1      1      1      1      1      
1      1      1      1      1      1      1      1      1      1      
1      1      1      1      1      1      1      1      1      1      
1      1      1      1      1      1      1      1      1      1      
1      1      1      1      1      1      1      1      1      1      
1      1      1      1      1      1      1      1      1      1      
1      1      1      1      1      1      1      1      1      1      
1      1      1      1      1      1      1      1      1      1      
1      1      1      1      1      1      1      1      1      1      
1      1      1      1      1      1      1      1      1      1      
1      1      1      1      1      1      1      1      1      1      
1      1      1      1      1      1      1      1      1      1      
1      1      1      1      1      1      1      1      1      1      
1      1      1      1      1      1      1      1      1      1      
1      1      1      1      1      1      1      1      1      1      
1      1      1      1      1      1      1      1      1      1      
1      1      1      1      1      1      1      1      1      1      
1      1      1      1      1      1      1      1      1      1      
1      1      1      1      1      1      1      1      1      1      
1      1      1      1      1      1      1      1      1      1      
1      1      1      1      1      1      1      1      1      1      
1      1      1      1      1      1      1      1      1      1      
1      1      1      1      1      1      1      1      1      1      
1      1      1      1      1      1      1      1      1      1      
1      1      1      1      1      1      1      1      1      1      
1      1      1      1      1      1      1      1      1      1      
1      1      1      1      1      1      1      1      1      1      
1      1      1      1      1      1      1      1      1      1      
1      1      1      1      1      1      1      1      1      1      
1      1      1      1      1      1      1      1      1      1      
1      1      1      1      1      1      1      1      1      1      
1      1      1      1      1      1      1      1      1      1      
1      1      1      1      1      1      1      1      1      1      
1      1      1      1      1      1      1      1      1      1      
1      1      1      1      1      1      1      1      1      1      
1      1      1      1      1      1      1      1      1      1      
1      1      1      1      1      1      1      1      1      1      
1      1      1      1      1      1      1      1      1      1      
1      1      1      1      1      1      1      1      1      1      
1      1      1      1      1      1      

1      2      3      88      
3      2      1      4      
1      4      2      94      
5      6      7      168      
7      6      5      4      
5      4      6      94      
11      8      9      12      
9      8      11      10      
11      10      8      54      
11      8      12      55      
13      14      15      66      
15      14      13      12      
13      12      14      55      
16      17      18      19      
18      17      16      3      
16      18      3      88      
16      19      18      53      
16      17      19      38      
20      21      22      57      
22      21      20      15      
20      15      21      66      
23      24      25      53      
25      24      23      22      
22      23      25      57      
26      19      27      38      
27      19      26      24      
26      24      19      53      
28      29      30      149      
30      29      28      31      
28      31      29      68      
32      33      34      162      
34      33      32      30      
32      30      33      149      
35      36      34      162      
34      36      35      37      
35      37      36      53      
38      27      26      37      
26      38      37      53      
27      38      19      17      
26      19      38      53      
16      38      19      53      
39      40      41      145      
41      40      39      42      
42      41      40      43      
42      40      39      54      
41      40      43      62      
42      43      40      55      
46      47      48      178      
48      47      46      33      
33      48      47      149      
33      47      46      162      
49      50      51      64      
51      50      49      52      
52      51      50      41      
52      50      49      151      
41      51      50      62      
41      50      52      145      
16      53      18      88      
19      18      53      23      
23      53      19      24      
18      53      23      152      
38      53      16      36      
36      38      53      37      
36      53      16      113      
37      53      35      26      
26      53      35      25      
25      26      53      24      
25      53      35      148      
23      53      25      57      
35      53      36      162      
40      54      42      55      
39      54      40      45      
40      45      54      226      
40      39      45      145      
10      54      11      42      
42      54      11      55      
11      54      8      147      
54      55      40      147      
11      42      55      43      
11      55      54      147      
12      55      8      14      
14      55      8      179      
11      8      55      147      
11      55      12      13      
11      55      13      43      
13      55      14      66      
43      55      13      56      
56      55      13      66      
43      55      56      62      
40      55      43      62      
53      57      23      152      
25      57      53      148      
20      57      25      58      
25      57      20      22      
22      23      57      21      
20      21      57      66      
23      57      21      152      
58      57      25      148      
20      57      58      66      
52      61      60      151      
60      61      52      59      
52      60      59      145      
55      62      40      177      
51      62      56      63      
56      62      51      43      
43      62      51      41      
56      62      55      66      
50      62      51      64      
41      62      50      145      
40      62      41      145      
63      62      56      72      
51      62      63      64      
49      64      65      151      
65      64      49      63      
63      65      64      150      
63      64      49      51      
62      64      50      187      
63      64      62      72      
50      64      49      151      
62      66      56      72      
55      66      62      206      
20      66      58      56      
56      20      66      13      
56      66      58      72      
58      66      57      72      
13      20      66      15      
57      66      21      280      
14      66      55      179      
15      66      14      21      
21      66      14      280      
29      69      68      31      
68      69      29      67      
29      68      67      48      
70      68      28      71      
28      68      70      31      
28      68      29      149      
48      68      67      150      
29      68      48      149      
71      68      28      136      
57      72      66      181      
58      72      57      148      
66      72      62      206      
56      72      58      63      
63      72      58      46      
46      72      58      148      
63      72      46      178      
62      72      64      187      
63      64      72      178      
65      67      74      150      
74      67      65      73      
65      74      73      151      